# vtk DataFile Version 3.0
Unstructured Grid from OpenGeoSys
ASCII
DATASET UNSTRUCTURED_GRID
FIELD TimesAndCycles 2
TIME 1 1 double
8.640000000000e+04
CYLCE 1 1 long
1
POINTS 2478 double
5.000000000000e-02 0.000000000000e+00 -2.000000000000e+01
5.000000000000e-02 0.000000000000e+00 -2.100000000000e+01
1.000000000000e-01 0.000000000000e+00 -2.100000000000e+01
1.000000000000e-01 0.000000000000e+00 -2.000000000000e+01
5.000000000000e-02 0.000000000000e+00 -2.200000000000e+01
1.000000000000e-01 0.000000000000e+00 -2.200000000000e+01
5.000000000000e-02 0.000000000000e+00 -2.300000000000e+01
1.000000000000e-01 0.000000000000e+00 -2.300000000000e+01
5.000000000000e-02 0.000000000000e+00 -2.400000000000e+01
1.000000000000e-01 0.000000000000e+00 -2.400000000000e+01
5.000000000000e-02 0.000000000000e+00 -2.500000000000e+01
1.000000000000e-01 0.000000000000e+00 -2.500000000000e+01
5.000000000000e-02 0.000000000000e+00 -2.600000000000e+01
1.000000000000e-01 0.000000000000e+00 -2.600000000000e+01
5.000000000000e-02 0.000000000000e+00 -2.700000000000e+01
1.000000000000e-01 0.000000000000e+00 -2.700000000000e+01
5.000000000000e-02 0.000000000000e+00 -2.800000000000e+01
1.000000000000e-01 0.000000000000e+00 -2.800000000000e+01
5.000000000000e-02 0.000000000000e+00 -2.900000000000e+01
1.000000000000e-01 0.000000000000e+00 -2.900000000000e+01
5.000000000000e-02 0.000000000000e+00 -3.000000000000e+01
1.000000000000e-01 0.000000000000e+00 -3.000000000000e+01
5.000000000000e-02 0.000000000000e+00 -3.100000000000e+01
1.000000000000e-01 0.000000000000e+00 -3.100000000000e+01
5.000000000000e-02 0.000000000000e+00 -3.200000000000e+01
1.000000000000e-01 0.000000000000e+00 -3.200000000000e+01
5.000000000000e-02 0.000000000000e+00 -3.300000000000e+01
1.000000000000e-01 0.000000000000e+00 -3.300000000000e+01
5.000000000000e-02 0.000000000000e+00 -3.400000000000e+01
1.000000000000e-01 0.000000000000e+00 -3.400000000000e+01
5.000000000000e-02 0.000000000000e+00 -3.500000000000e+01
1.000000000000e-01 0.000000000000e+00 -3.500000000000e+01
5.000000000000e-02 0.000000000000e+00 -3.600000000000e+01
1.000000000000e-01 0.000000000000e+00 -3.600000000000e+01
5.000000000000e-02 0.000000000000e+00 -3.700000000000e+01
1.000000000000e-01 0.000000000000e+00 -3.700000000000e+01
5.000000000000e-02 0.000000000000e+00 -3.800000000000e+01
1.000000000000e-01 0.000000000000e+00 -3.800000000000e+01
5.000000000000e-02 0.000000000000e+00 -3.900000000000e+01
1.000000000000e-01 0.000000000000e+00 -3.900000000000e+01
5.000000000000e-02 0.000000000000e+00 -4.000000000000e+01
1.000000000000e-01 0.000000000000e+00 -4.000000000000e+01
2.000000000000e-01 0.000000000000e+00 -2.100000000000e+01
2.000000000000e-01 0.000000000000e+00 -2.000000000000e+01
2.000000000000e-01 0.000000000000e+00 -2.200000000000e+01
2.000000000000e-01 0.000000000000e+00 -2.300000000000e+01
2.000000000000e-01 0.000000000000e+00 -2.400000000000e+01
2.000000000000e-01 0.000000000000e+00 -2.500000000000e+01
2.000000000000e-01 0.000000000000e+00 -2.600000000000e+01
2.000000000000e-01 0.000000000000e+00 -2.700000000000e+01
2.000000000000e-01 0.000000000000e+00 -2.800000000000e+01
2.000000000000e-01 0.000000000000e+00 -2.900000000000e+01
2.000000000000e-01 0.000000000000e+00 -3.000000000000e+01
2.000000000000e-01 0.000000000000e+00 -3.100000000000e+01
2.000000000000e-01 0.000000000000e+00 -3.200000000000e+01
2.000000000000e-01 0.000000000000e+00 -3.300000000000e+01
2.000000000000e-01 0.000000000000e+00 -3.400000000000e+01
2.000000000000e-01 0.000000000000e+00 -3.500000000000e+01
2.000000000000e-01 0.000000000000e+00 -3.600000000000e+01
2.000000000000e-01 0.000000000000e+00 -3.700000000000e+01
2.000000000000e-01 0.000000000000e+00 -3.800000000000e+01
2.000000000000e-01 0.000000000000e+00 -3.900000000000e+01
2.000000000000e-01 0.000000000000e+00 -4.000000000000e+01
3.000000000000e-01 0.000000000000e+00 -2.100000000000e+01
3.000000000000e-01 0.000000000000e+00 -2.000000000000e+01
3.000000000000e-01 0.000000000000e+00 -2.200000000000e+01
3.000000000000e-01 0.000000000000e+00 -2.300000000000e+01
3.000000000000e-01 0.000000000000e+00 -2.400000000000e+01
3.000000000000e-01 0.000000000000e+00 -2.500000000000e+01
3.000000000000e-01 0.000000000000e+00 -2.600000000000e+01
3.000000000000e-01 0.000000000000e+00 -2.700000000000e+01
3.000000000000e-01 0.000000000000e+00 -2.800000000000e+01
3.000000000000e-01 0.000000000000e+00 -2.900000000000e+01
3.000000000000e-01 0.000000000000e+00 -3.000000000000e+01
3.000000000000e-01 0.000000000000e+00 -3.100000000000e+01
3.000000000000e-01 0.000000000000e+00 -3.200000000000e+01
3.000000000000e-01 0.000000000000e+00 -3.300000000000e+01
3.000000000000e-01 0.000000000000e+00 -3.400000000000e+01
3.000000000000e-01 0.000000000000e+00 -3.500000000000e+01
3.000000000000e-01 0.000000000000e+00 -3.600000000000e+01
3.000000000000e-01 0.000000000000e+00 -3.700000000000e+01
3.000000000000e-01 0.000000000000e+00 -3.800000000000e+01
3.000000000000e-01 0.000000000000e+00 -3.900000000000e+01
3.000000000000e-01 0.000000000000e+00 -4.000000000000e+01
3.017908699421e+01 0.000000000000e+00 -2.100000000000e+01
3.017908699421e+01 0.000000000000e+00 -2.000000000000e+01
2.873036212330e+01 0.000000000000e+00 -2.100000000000e+01
2.873036212330e+01 0.000000000000e+00 -2.000000000000e+01
2.734614430377e+01 0.000000000000e+00 -2.100000000000e+01
2.734614430377e+01 0.000000000000e+00 -2.000000000000e+01
2.602356124444e+01 0.000000000000e+00 -2.100000000000e+01
2.602356124444e+01 0.000000000000e+00 -2.000000000000e+01
2.475986854800e+01 0.000000000000e+00 -2.100000000000e+01
2.475986854800e+01 0.000000000000e+00 -2.000000000000e+01
2.355244401630e+01 0.000000000000e+00 -2.100000000000e+01
2.355244401630e+01 0.000000000000e+00 -2.000000000000e+01
2.239878220923e+01 0.000000000000e+00 -2.100000000000e+01
2.239878220923e+01 0.000000000000e+00 -2.000000000000e+01
2.129648924588e+01 0.000000000000e+00 -2.100000000000e+01
2.129648924588e+01 0.000000000000e+00 -2.000000000000e+01
2.024327783711e+01 0.000000000000e+00 -2.100000000000e+01
2.024327783711e+01 0.000000000000e+00 -2.000000000000e+01
1.923696253941e+01 0.000000000000e+00 -2.100000000000e+01
1.923696253941e+01 0.000000000000e+00 -2.000000000000e+01
1.827545522004e+01 0.000000000000e+00 -2.100000000000e+01
1.827545522004e+01 0.000000000000e+00 -2.000000000000e+01
1.735676072407e+01 0.000000000000e+00 -2.100000000000e+01
1.735676072407e+01 0.000000000000e+00 -2.000000000000e+01
1.647897273441e+01 0.000000000000e+00 -2.100000000000e+01
1.647897273441e+01 0.000000000000e+00 -2.000000000000e+01
1.564026981610e+01 0.000000000000e+00 -2.100000000000e+01
1.564026981610e+01 0.000000000000e+00 -2.000000000000e+01
1.483891163683e+01 0.000000000000e+00 -2.100000000000e+01
1.483891163683e+01 0.000000000000e+00 -2.000000000000e+01
1.407323535568e+01 0.000000000000e+00 -2.100000000000e+01
1.407323535568e+01 0.000000000000e+00 -2.000000000000e+01
1.334165217268e+01 0.000000000000e+00 -2.100000000000e+01
1.334165217268e+01 0.000000000000e+00 -2.000000000000e+01
1.264264403200e+01 0.000000000000e+00 -2.100000000000e+01
1.264264403200e+01 0.000000000000e+00 -2.000000000000e+01
1.197476047194e+01 0.000000000000e+00 -2.100000000000e+01
1.197476047194e+01 0.000000000000e+00 -2.000000000000e+01
1.133661561520e+01 0.000000000000e+00 -2.100000000000e+01
1.133661561520e+01 0.000000000000e+00 -2.000000000000e+01
1.072688529313e+01 0.000000000000e+00 -2.100000000000e+01
1.072688529313e+01 0.000000000000e+00 -2.000000000000e+01
1.014430429803e+01 0.000000000000e+00 -2.100000000000e+01
1.014430429803e+01 0.000000000000e+00 -2.000000000000e+01
9.587663757842e+00 0.000000000000e+00 -2.100000000000e+01
9.587663757842e+00 0.000000000000e+00 -2.000000000000e+01
9.055808627670e+00 0.000000000000e+00 -2.100000000000e+01
9.055808627670e+00 0.000000000000e+00 -2.000000000000e+01
8.547635293055e+00 0.000000000000e+00 -2.100000000000e+01
8.547635293055e+00 0.000000000000e+00 -2.000000000000e+01
8.062089279933e+00 0.000000000000e+00 -2.100000000000e+01
8.062089279933e+00 0.000000000000e+00 -2.000000000000e+01
7.598163066571e+00 0.000000000000e+00 -2.100000000000e+01
7.598163066571e+00 0.000000000000e+00 -2.000000000000e+01
7.154893992937e+00 0.000000000000e+00 -2.100000000000e+01
7.154893992937e+00 0.000000000000e+00 -2.000000000000e+01
6.731362263145e+00 0.000000000000e+00 -2.100000000000e+01
6.731362263145e+00 0.000000000000e+00 -2.000000000000e+01
6.326689036858e+00 0.000000000000e+00 -2.100000000000e+01
6.326689036858e+00 0.000000000000e+00 -2.000000000000e+01
5.940034605670e+00 0.000000000000e+00 -2.100000000000e+01
5.940034605670e+00 0.000000000000e+00 -2.000000000000e+01
5.570596650682e+00 0.000000000000e+00 -2.100000000000e+01
5.570596650682e+00 0.000000000000e+00 -2.000000000000e+01
5.217608577672e+00 0.000000000000e+00 -2.100000000000e+01
5.217608577672e+00 0.000000000000e+00 -2.000000000000e+01
4.880337926390e+00 0.000000000000e+00 -2.100000000000e+01
4.880337926390e+00 0.000000000000e+00 -2.000000000000e+01
4.558084850681e+00 0.000000000000e+00 -2.100000000000e+01
4.558084850681e+00 0.000000000000e+00 -2.000000000000e+01
4.250180666284e+00 0.000000000000e+00 -2.100000000000e+01
4.250180666284e+00 0.000000000000e+00 -2.000000000000e+01
3.955986463295e+00 0.000000000000e+00 -2.100000000000e+01
3.955986463295e+00 0.000000000000e+00 -2.000000000000e+01
3.674891780407e+00 0.000000000000e+00 -2.100000000000e+01
3.674891780407e+00 0.000000000000e+00 -2.000000000000e+01
3.406313338193e+00 0.000000000000e+00 -2.100000000000e+01
3.406313338193e+00 0.000000000000e+00 -2.000000000000e+01
3.149693828776e+00 0.000000000000e+00 -2.100000000000e+01
3.149693828776e+00 0.000000000000e+00 -2.000000000000e+01
2.904500759404e+00 0.000000000000e+00 -2.100000000000e+01
2.904500759404e+00 0.000000000000e+00 -2.000000000000e+01
2.670225347514e+00 0.000000000000e+00 -2.100000000000e+01
2.670225347514e+00 0.000000000000e+00 -2.000000000000e+01
2.446381464989e+00 0.000000000000e+00 -2.100000000000e+01
[...]
POINT_DATA 2478
SCALARS PRESSURE1 double 1
LOOKUP_TABLE default
3.025740068775e+05
3.123840068775e+05
3.117133204541e+05
3.019033204541e+05
3.221940068775e+05
3.215233204541e+05
3.320040068775e+05
3.313333204541e+05
3.418140068774e+05
3.411433204541e+05
3.516240068774e+05
3.509533204541e+05
3.614340068774e+05
3.607633204541e+05
3.712440068774e+05
3.705733204541e+05
3.810540068774e+05
3.803833204541e+05
3.908640068774e+05
3.901933204541e+05
4.006740068774e+05
4.000033204541e+05
4.104840068774e+05
4.098133204541e+05
4.202940068774e+05
4.196233204541e+05
4.301040068774e+05
4.294333204541e+05
4.399140068774e+05
4.392433204541e+05
4.497240068774e+05
4.490533204541e+05
4.595340068774e+05
4.588633204541e+05
4.693440068775e+05
4.686733204541e+05
4.791540068775e+05
4.784833204541e+05
4.889640068775e+05
4.882933204541e+05
4.987740068775e+05
4.981033204541e+05
3.110426340308e+05
3.012326340308e+05
3.208526340307e+05
3.306626340307e+05
3.404726340307e+05
3.502826340307e+05
3.600926340307e+05
3.699026340307e+05
3.797126340307e+05
3.895226340307e+05
3.993326340307e+05
4.091426340307e+05
4.189526340307e+05
4.287626340307e+05
4.385726340307e+05
4.483826340307e+05
4.581926340307e+05
4.680026340307e+05
4.778126340307e+05
4.876226340308e+05
4.974326340308e+05
3.106402221767e+05
3.008302221767e+05
3.204502221767e+05
3.302602221767e+05
3.400702221767e+05
3.498802221767e+05
3.596902221767e+05
3.695002221767e+05
3.793102221767e+05
3.891202221767e+05
3.989302221767e+05
4.087402221767e+05
4.185502221767e+05
4.283602221767e+05
4.381702221767e+05
4.479802221767e+05
4.577902221767e+05
4.676002221767e+05
4.774102221767e+05
4.872202221767e+05
4.970302221767e+05
3.060100000000e+05
2.962000000000e+05
3.060594813710e+05
2.962494813710e+05
3.061091479510e+05
2.962991479510e+05
3.061590098620e+05
2.963490098620e+05
3.062090778589e+05
2.963990778589e+05
3.062593633781e+05
2.964493633781e+05
3.063098785901e+05
2.964998785901e+05
3.063606364570e+05
2.965506364570e+05
3.064116507965e+05
2.966016507965e+05
3.064629363511e+05
2.966529363511e+05
3.065145088657e+05
2.967045088657e+05
3.065663851728e+05
2.967563851728e+05
3.066185832865e+05
2.968085832865e+05
3.066711225075e+05
2.968611225075e+05
3.067240235395e+05
2.969140235395e+05
3.067773086193e+05
2.969673086193e+05
3.068310016619e+05
2.970210016619e+05
3.068851284237e+05
2.970751284237e+05
3.069397166849e+05
2.971297166849e+05
3.069947964567e+05
2.971847964567e+05
3.070504002138e+05
2.972404002138e+05
3.071065631597e+05
2.972965631597e+05
3.071633235273e+05
2.973533235273e+05
3.072207229228e+05
2.974107229228e+05
3.072788067201e+05
2.974688067201e+05
3.073376245140e+05
2.975276245140e+05
3.073972306441e+05
2.975872306441e+05
3.074576848025e+05
2.976476848025e+05
3.075190527427e+05
2.977090527427e+05
3.075814071092e+05
2.977714071092e+05
3.076448284151e+05
2.978348284151e+05
3.077094061993e+05
2.978994061993e+05
3.077752404052e+05
2.979652404052e+05
3.078424430330e+05
2.980324430330e+05
3.079111401346e+05
2.981011401346e+05
3.079814742393e+05
2.981714742393e+05
3.080536073270e+05
2.982436073270e+05
3.081277245052e+05
2.983177245052e+05
3.082040385979e+05
2.983940385979e+05
3.082827959345e+05
2.984727959345e+05
3.083642837329e+05
2.985542837329e+05
3.084488396385e+05
2.986388396385e+05
3.085368642171e+05
2.987268642171e+05
3.086288375760e+05
2.988188375760e+05
3.087253418620e+05
2.989153418620e+05
3.088270923246e+05
2.990170923246e+05
3.089349811754e+05
2.991249811754e+05
3.090501411405e+05
2.992401411405e+05
3.091740403614e+05
2.993640403614e+05
3.093086292342e+05
2.994986292342e+05
3.094565774874e+05
2.996465774874e+05
3.096216773706e+05
2.998116773706e+05
3.098095753839e+05
2.999995753839e+05
3.100292163470e+05
3.002192163471e+05
3.102960331645e+05
3.004860331645e+05
3.158200000000e+05
3.158694813710e+05
3.159191479510e+05
3.159690098620e+05
3.160190778589e+05
3.160693633781e+05
3.161198785901e+05
3.161706364570e+05
3.162216507965e+05
3.162729363511e+05
3.163245088657e+05
3.163763851728e+05
3.164285832865e+05
3.164811225075e+05
3.165340235395e+05
3.165873086193e+05
3.166410016619e+05
3.166951284237e+05
3.167497166849e+05
3.168047964567e+05
3.168604002139e+05
3.169165631597e+05
3.169733235273e+05
3.170307229228e+05
3.170888067201e+05
3.171476245140e+05
3.172072306441e+05
3.172676848025e+05
3.173290527427e+05
3.173914071092e+05
3.174548284151e+05
3.175194061993e+05
3.175852404052e+05
3.176524430330e+05
3.177211401346e+05
3.177914742393e+05
3.178636073270e+05
3.179377245052e+05
3.180140385979e+05
3.180927959345e+05
3.181742837329e+05
3.182588396385e+05
3.183468642171e+05
3.184388375760e+05
3.185353418620e+05
3.186370923246e+05
3.187449811754e+05
3.188601411405e+05
3.189840403614e+05
3.191186292342e+05
3.192665774873e+05
3.194316773705e+05
3.196195753839e+05
3.198392163470e+05
3.201060331645e+05
3.256300000000e+05
3.256794813710e+05
3.257291479510e+05
3.257790098620e+05
3.258290778589e+05
3.258793633781e+05
3.259298785901e+05
3.259806364570e+05
3.260316507965e+05
3.260829363511e+05
3.261345088657e+05
3.261863851728e+05
3.262385832865e+05
3.262911225075e+05
3.263440235395e+05
3.263973086193e+05
3.264510016619e+05
3.265051284237e+05
3.265597166849e+05
3.266147964567e+05
3.266704002138e+05
3.267265631597e+05
3.267833235273e+05
3.268407229228e+05
3.268988067201e+05
3.269576245140e+05
3.270172306441e+05
3.270776848025e+05
3.271390527427e+05
3.272014071092e+05
3.272648284151e+05
3.273294061993e+05
3.273952404052e+05
3.274624430330e+05
3.275311401346e+05
3.276014742393e+05
3.276736073270e+05
3.277477245052e+05
3.278240385979e+05
3.279027959345e+05
3.279842837329e+05
3.280688396385e+05
3.281568642171e+05
3.282488375760e+05
3.283453418620e+05
3.284470923246e+05
3.285549811754e+05
3.286701411405e+05
3.287940403614e+05
3.289286292342e+05
3.290765774873e+05
3.292416773705e+05
3.294295753839e+05
3.296492163470e+05
3.299160331645e+05
3.354400000000e+05
3.354894813710e+05
3.355391479510e+05
3.355890098620e+05
3.356390778589e+05
3.356893633781e+05
3.357398785901e+05
3.357906364570e+05
3.358416507965e+05
3.358929363511e+05
3.359445088657e+05
3.359963851728e+05
3.360485832865e+05
3.361011225075e+05
3.361540235395e+05
3.362073086193e+05
3.362610016619e+05
3.363151284237e+05
3.363697166849e+05
3.364247964567e+05
3.364804002138e+05
3.365365631597e+05
3.365933235273e+05
3.366507229228e+05
3.367088067201e+05
3.367676245140e+05
3.368272306441e+05
3.368876848025e+05
3.369490527427e+05
3.370114071092e+05
3.370748284151e+05
3.371394061993e+05
3.372052404052e+05
3.372724430330e+05
3.373411401346e+05
3.374114742393e+05
3.374836073270e+05
3.375577245052e+05
3.376340385979e+05
3.377127959345e+05
3.377942837329e+05
3.378788396385e+05
3.379668642171e+05
3.380588375760e+05
3.381553418620e+05
3.382570923246e+05
3.383649811754e+05
3.384801411405e+05
3.386040403614e+05
3.387386292342e+05
3.388865774873e+05
3.390516773705e+05
3.392395753839e+05
3.394592163470e+05
3.397260331645e+05
3.452500000000e+05
3.452994813710e+05
3.453491479510e+05
3.453990098620e+05
3.454490778589e+05
3.454993633781e+05
3.455498785901e+05
3.456006364570e+05
3.456516507965e+05
3.457029363511e+05
3.457545088657e+05
3.458063851728e+05
3.458585832865e+05
3.459111225075e+05
3.459640235395e+05
3.460173086193e+05
3.460710016619e+05
3.461251284237e+05
3.461797166849e+05
3.462347964567e+05
3.462904002138e+05
3.463465631597e+05
3.464033235273e+05
3.464607229228e+05
3.465188067201e+05
3.465776245140e+05
3.466372306441e+05
3.466976848025e+05
3.467590527427e+05
3.468214071092e+05
3.468848284151e+05
3.469494061993e+05
3.470152404052e+05
3.470824430330e+05
3.471511401346e+05
3.472214742393e+05
3.472936073270e+05
3.473677245052e+05
3.474440385979e+05
3.475227959345e+05
3.476042837329e+05
3.476888396385e+05
3.477768642171e+05
3.478688375760e+05
3.479653418619e+05
3.480670923246e+05
3.481749811754e+05
3.482901411405e+05
3.484140403614e+05
3.485486292342e+05
3.486965774873e+05
3.488616773705e+05
3.490495753839e+05
3.492692163470e+05
3.495360331645e+05
3.550600000000e+05
3.551094813710e+05
3.551591479510e+05
3.552090098620e+05
3.552590778589e+05
3.553093633781e+05
3.553598785901e+05
3.554106364570e+05
3.554616507965e+05
3.555129363511e+05
3.555645088657e+05
3.556163851728e+05
3.556685832865e+05
3.557211225075e+05
3.557740235395e+05
3.558273086193e+05
3.558810016619e+05
3.559351284237e+05
3.559897166849e+05
3.560447964567e+05
3.561004002138e+05
3.561565631597e+05
3.562133235273e+05
3.562707229228e+05
3.563288067201e+05
3.563876245140e+05
3.564472306441e+05
3.565076848025e+05
3.565690527427e+05
3.566314071091e+05
3.566948284151e+05
3.567594061993e+05
3.568252404052e+05
3.568924430330e+05
3.569611401346e+05
3.570314742393e+05
3.571036073270e+05
3.571777245052e+05
3.572540385979e+05
3.573327959345e+05
3.574142837329e+05
3.574988396385e+05
3.575868642171e+05
3.576788375760e+05
3.577753418619e+05
3.578770923246e+05
3.579849811754e+05
3.581001411405e+05
3.582240403614e+05
3.583586292342e+05
3.585065774873e+05
3.586716773705e+05
3.588595753839e+05
3.590792163470e+05
3.593460331645e+05
3.648700000000e+05
3.649194813710e+05
3.649691479510e+05
3.650190098620e+05
3.650690778589e+05
3.651193633781e+05
3.651698785901e+05
3.652206364570e+05
3.652716507965e+05
3.653229363511e+05
3.653745088657e+05
3.654263851728e+05
3.654785832865e+05
3.655311225075e+05
3.655840235395e+05
3.656373086193e+05
3.656910016619e+05
3.657451284237e+05
3.657997166849e+05
3.658547964567e+05
3.659104002138e+05
3.659665631597e+05
3.660233235273e+05
3.660807229228e+05
3.661388067201e+05
3.661976245140e+05
3.662572306441e+05
3.663176848025e+05
3.663790527427e+05
3.664414071091e+05
3.665048284151e+05
3.665694061993e+05
3.666352404052e+05
3.667024430330e+05
3.667711401346e+05
3.668414742393e+05
3.669136073270e+05
3.669877245052e+05
3.670640385979e+05
3.671427959345e+05
3.672242837329e+05
3.673088396385e+05
3.673968642171e+05
3.674888375760e+05
3.675853418619e+05
3.676870923246e+05
3.677949811754e+05
3.679101411405e+05
3.680340403614e+05
3.681686292342e+05
3.683165774873e+05
3.684816773705e+05
3.686695753839e+05
3.688892163470e+05
3.691560331645e+05
3.746800000000e+05
3.747294813710e+05
3.747791479510e+05
3.748290098620e+05
3.748790778589e+05
3.749293633781e+05
3.749798785901e+05
3.750306364570e+05
3.750816507965e+05
3.751329363511e+05
3.751845088657e+05
3.752363851728e+05
3.752885832865e+05
3.753411225075e+05
3.753940235395e+05
3.754473086193e+05
3.755010016619e+05
3.755551284237e+05
3.756097166849e+05
3.756647964567e+05
3.757204002138e+05
3.757765631597e+05
3.758333235273e+05
3.758907229228e+05
3.759488067201e+05
3.760076245140e+05
3.760672306441e+05
3.761276848025e+05
3.761890527427e+05
3.762514071091e+05
3.763148284151e+05
3.763794061993e+05
3.764452404052e+05
3.765124430330e+05
3.765811401346e+05
3.766514742393e+05
3.767236073270e+05
3.767977245052e+05
3.768740385979e+05
3.769527959345e+05
3.770342837329e+05
3.771188396385e+05
3.772068642171e+05
3.772988375759e+05
3.773953418619e+05
3.774970923246e+05
3.776049811754e+05
3.777201411405e+05
3.778440403614e+05
3.779786292342e+05
3.781265774873e+05
3.782916773705e+05
3.784795753839e+05
3.786992163470e+05
3.789660331645e+05
3.844900000000e+05
3.845394813710e+05
3.845891479510e+05
3.846390098620e+05
3.846890778589e+05
3.847393633781e+05
3.847898785901e+05
3.848406364570e+05
3.848916507965e+05
3.849429363511e+05
3.849945088657e+05
3.850463851728e+05
3.850985832865e+05
3.851511225075e+05
3.852040235395e+05
3.852573086193e+05
3.853110016619e+05
3.853651284237e+05
3.854197166849e+05
3.854747964567e+05
3.855304002138e+05
3.855865631597e+05
3.856433235273e+05
3.857007229228e+05
3.857588067201e+05
3.858176245140e+05
3.858772306441e+05
3.859376848025e+05
3.859990527427e+05
3.860614071091e+05
3.861248284151e+05
3.861894061993e+05
3.862552404052e+05
3.863224430330e+05
3.863911401346e+05
3.864614742393e+05
3.865336073270e+05
3.866077245052e+05
3.866840385979e+05
3.867627959345e+05
3.868442837329e+05
3.869288396385e+05
3.870168642171e+05
3.871088375759e+05
3.872053418619e+05
3.873070923246e+05
3.874149811754e+05
3.875301411405e+05
3.876540403614e+05
3.877886292342e+05
3.879365774873e+05
3.881016773705e+05
3.882895753839e+05
3.885092163470e+05
3.887760331645e+05
3.943000000000e+05
3.943494813710e+05
3.943991479510e+05
3.944490098620e+05
3.944990778589e+05
3.945493633781e+05
3.945998785901e+05
3.946506364570e+05
3.947016507965e+05
3.947529363511e+05
3.948045088657e+05
3.948563851728e+05
3.949085832865e+05
3.949611225075e+05
3.950140235395e+05
3.950673086193e+05
3.951210016619e+05
3.951751284237e+05
3.952297166849e+05
3.952847964567e+05
3.953404002138e+05
3.953965631597e+05
3.954533235273e+05
3.955107229228e+05
3.955688067201e+05
3.956276245140e+05
3.956872306441e+05
3.957476848025e+05
3.958090527427e+05
3.958714071091e+05
3.959348284151e+05
3.959994061993e+05
3.960652404052e+05
3.961324430330e+05
3.962011401346e+05
3.962714742393e+05
3.963436073270e+05
3.964177245052e+05
3.964940385979e+05
3.965727959345e+05
3.966542837329e+05
3.967388396385e+05
3.968268642171e+05
3.969188375759e+05
3.970153418619e+05
3.971170923246e+05
3.972249811754e+05
3.973401411405e+05
3.974640403614e+05
3.975986292342e+05
3.977465774873e+05
3.979116773705e+05
3.980995753839e+05
3.983192163470e+05
3.985860331645e+05
4.041100000000e+05
4.041594813710e+05
4.042091479510e+05
4.042590098620e+05
4.043090778589e+05
4.043593633781e+05
4.044098785901e+05
4.044606364570e+05
4.045116507965e+05
4.045629363511e+05
4.046145088657e+05
4.046663851728e+05
4.047185832865e+05
4.047711225075e+05
4.048240235395e+05
4.048773086193e+05
4.049310016619e+05
4.049851284237e+05
4.050397166849e+05
4.050947964567e+05
4.051504002138e+05
4.052065631597e+05
4.052633235273e+05
4.053207229228e+05
4.053788067201e+05
4.054376245140e+05
4.054972306441e+05
4.055576848025e+05
4.056190527427e+05
4.056814071091e+05
4.057448284151e+05
4.058094061993e+05
4.058752404052e+05
4.059424430330e+05
4.060111401346e+05
4.060814742393e+05
4.061536073270e+05
4.062277245052e+05
4.063040385979e+05
4.063827959345e+05
4.064642837329e+05
4.065488396385e+05
4.066368642171e+05
4.067288375759e+05
4.068253418619e+05
4.069270923246e+05
4.070349811754e+05
4.071501411405e+05
4.072740403614e+05
4.074086292342e+05
4.075565774873e+05
4.077216773705e+05
4.079095753839e+05
4.081292163470e+05
4.083960331645e+05
4.139200000000e+05
4.139694813710e+05
4.140191479510e+05
4.140690098620e+05
4.141190778589e+05
4.141693633781e+05
4.142198785901e+05
4.142706364570e+05
4.143216507965e+05
4.143729363511e+05
4.144245088657e+05
4.144763851728e+05
4.145285832865e+05
4.145811225075e+05
4.146340235395e+05
4.146873086193e+05
4.147410016619e+05
4.147951284237e+05
4.148497166849e+05
4.149047964567e+05
4.149604002138e+05
4.150165631597e+05
4.150733235273e+05
4.151307229228e+05
4.151888067201e+05
4.152476245140e+05
4.153072306441e+05
4.153676848025e+05
4.154290527427e+05
4.154914071091e+05
4.155548284151e+05
4.156194061993e+05
4.156852404052e+05
4.157524430330e+05
4.158211401346e+05
4.158914742393e+05
4.159636073270e+05
4.160377245052e+05
4.161140385979e+05
4.161927959345e+05
4.162742837329e+05
4.163588396385e+05
4.164468642171e+05
4.165388375759e+05
4.166353418619e+05
4.167370923246e+05
4.168449811754e+05
4.169601411405e+05
4.170840403614e+05
4.172186292342e+05
4.173665774873e+05
4.175316773705e+05
4.177195753839e+05
4.179392163470e+05
4.182060331645e+05
4.237300000000e+05
4.237794813710e+05
4.238291479510e+05
4.238790098620e+05
4.239290778589e+05
4.239793633781e+05
4.240298785901e+05
4.240806364570e+05
4.241316507965e+05
4.241829363511e+05
4.242345088657e+05
4.242863851728e+05
4.243385832865e+05
4.243911225075e+05
4.244440235395e+05
4.244973086193e+05
4.245510016619e+05
4.246051284237e+05
4.246597166849e+05
4.247147964567e+05
4.247704002138e+05
4.248265631597e+05
4.248833235273e+05
4.249407229228e+05
4.249988067201e+05
4.250576245140e+05
4.251172306441e+05
4.251776848025e+05
4.252390527427e+05
4.253014071091e+05
4.253648284151e+05
4.254294061993e+05
4.254952404052e+05
4.255624430330e+05
4.256311401346e+05
4.257014742393e+05
4.257736073270e+05
4.258477245052e+05
4.259240385979e+05
4.260027959345e+05
4.260842837329e+05
4.261688396385e+05
4.262568642171e+05
4.263488375759e+05
4.264453418619e+05
4.265470923246e+05
4.266549811754e+05
4.267701411405e+05
4.268940403614e+05
4.270286292342e+05
4.271765774873e+05
4.273416773705e+05
4.275295753839e+05
4.277492163470e+05
4.280160331645e+05
4.335400000000e+05
4.335894813710e+05
4.336391479510e+05
4.336890098620e+05
4.337390778589e+05
4.337893633781e+05
4.338398785901e+05
4.338906364570e+05
4.339416507965e+05
4.339929363511e+05
4.340445088657e+05
4.340963851728e+05
4.341485832865e+05
4.342011225075e+05
4.342540235395e+05
4.343073086193e+05
4.343610016619e+05
4.344151284237e+05
4.344697166849e+05
4.345247964567e+05
4.345804002138e+05
4.346365631597e+05
4.346933235273e+05
4.347507229228e+05
4.348088067201e+05
4.348676245140e+05
4.349272306441e+05
4.349876848025e+05
4.350490527427e+05
4.351114071091e+05
4.351748284151e+05
4.352394061993e+05
4.353052404052e+05
4.353724430330e+05
4.354411401346e+05
4.355114742393e+05
4.355836073270e+05
4.356577245052e+05
4.357340385979e+05
4.358127959345e+05
4.358942837329e+05
4.359788396385e+05
4.360668642171e+05
4.361588375760e+05
4.362553418619e+05
4.363570923246e+05
4.364649811754e+05
4.365801411405e+05
4.367040403614e+05
4.368386292342e+05
4.369865774873e+05
4.371516773705e+05
4.373395753839e+05
4.375592163470e+05
4.378260331645e+05
4.433500000000e+05
4.433994813710e+05
4.434491479510e+05
4.434990098620e+05
4.435490778589e+05
4.435993633781e+05
4.436498785901e+05
4.437006364570e+05
4.437516507965e+05
4.438029363511e+05
4.438545088657e+05
4.439063851728e+05
4.439585832865e+05
4.440111225075e+05
4.440640235395e+05
4.441173086193e+05
4.441710016619e+05
4.442251284237e+05
4.442797166849e+05
4.443347964567e+05
4.443904002138e+05
4.444465631597e+05
4.445033235273e+05
4.445607229228e+05
4.446188067201e+05
4.446776245140e+05
4.447372306441e+05
4.447976848025e+05
4.448590527427e+05
4.449214071091e+05
4.449848284151e+05
4.450494061993e+05
4.451152404052e+05
4.451824430330e+05
4.452511401346e+05
4.453214742393e+05
4.453936073270e+05
4.454677245052e+05
4.455440385979e+05
4.456227959345e+05
4.457042837329e+05
4.457888396385e+05
4.458768642171e+05
4.459688375760e+05
4.460653418619e+05
4.461670923246e+05
4.462749811754e+05
4.463901411405e+05
4.465140403614e+05
4.466486292342e+05
4.467965774873e+05
4.469616773705e+05
4.471495753839e+05
4.473692163470e+05
4.476360331645e+05
4.531600000000e+05
4.532094813710e+05
4.532591479510e+05
4.533090098620e+05
4.533590778589e+05
4.534093633781e+05
4.534598785901e+05
4.535106364570e+05
4.535616507965e+05
4.536129363511e+05
4.536645088657e+05
4.537163851728e+05
4.537685832865e+05
4.538211225075e+05
4.538740235395e+05
4.539273086193e+05
4.539810016619e+05
4.540351284237e+05
4.540897166849e+05
4.541447964567e+05
4.542004002138e+05
4.542565631597e+05
4.543133235273e+05
4.543707229228e+05
4.544288067201e+05
4.544876245140e+05
4.545472306441e+05
4.546076848025e+05
4.546690527427e+05
4.547314071091e+05
4.547948284151e+05
4.548594061993e+05
4.549252404052e+05
4.549924430330e+05
4.550611401346e+05
4.551314742393e+05
4.552036073270e+05
4.552777245052e+05
4.553540385979e+05
4.554327959345e+05
4.555142837329e+05
4.555988396385e+05
4.556868642171e+05
4.557788375760e+05
4.558753418620e+05
4.559770923246e+05
4.560849811754e+05
4.562001411405e+05
4.563240403614e+05
4.564586292342e+05
4.566065774873e+05
4.567716773705e+05
4.569595753839e+05
4.571792163470e+05
4.574460331645e+05
4.629700000000e+05
4.630194813710e+05
4.630691479510e+05
4.631190098620e+05
4.631690778589e+05
4.632193633781e+05
4.632698785901e+05
4.633206364570e+05
4.633716507965e+05
4.634229363511e+05
4.634745088657e+05
4.635263851728e+05
4.635785832865e+05
4.636311225075e+05
4.636840235395e+05
4.637373086193e+05
4.637910016619e+05
4.638451284237e+05
4.638997166849e+05
4.639547964567e+05
4.640104002138e+05
4.640665631597e+05
4.641233235273e+05
4.641807229228e+05
4.642388067201e+05
4.642976245140e+05
4.643572306441e+05
4.644176848025e+05
4.644790527427e+05
4.645414071091e+05