# vtk DataFile Version 3.0
Unstructured Grid from OpenGeoSys
ASCII
DATASET UNSTRUCTURED_GRID
FIELD TimesAndCycles 2
TIME 1 1 double
8.640000000000e+04
CYLCE 1 1 long
1
POINTS 2478 double
5.000000000000e-02 0.000000000000e+00 -2.000000000000e+01
5.000000000000e-02 0.000000000000e+00 -2.100000000000e+01
1.000000000000e-01 0.000000000000e+00 -2.100000000000e+01
1.000000000000e-01 0.000000000000e+00 -2.000000000000e+01
5.000000000000e-02 0.000000000000e+00 -2.200000000000e+01
1.000000000000e-01 0.000000000000e+00 -2.200000000000e+01
5.000000000000e-02 0.000000000000e+00 -2.300000000000e+01
1.000000000000e-01 0.000000000000e+00 -2.300000000000e+01
5.000000000000e-02 0.000000000000e+00 -2.400000000000e+01
1.000000000000e-01 0.000000000000e+00 -2.400000000000e+01
5.000000000000e-02 0.000000000000e+00 -2.500000000000e+01
1.000000000000e-01 0.000000000000e+00 -2.500000000000e+01
5.000000000000e-02 0.000000000000e+00 -2.600000000000e+01
1.000000000000e-01 0.000000000000e+00 -2.600000000000e+01
5.000000000000e-02 0.000000000000e+00 -2.700000000000e+01
1.000000000000e-01 0.000000000000e+00 -2.700000000000e+01
5.000000000000e-02 0.000000000000e+00 -2.800000000000e+01
1.000000000000e-01 0.000000000000e+00 -2.800000000000e+01
5.000000000000e-02 0.000000000000e+00 -2.900000000000e+01
1.000000000000e-01 0.000000000000e+00 -2.900000000000e+01
5.000000000000e-02 0.000000000000e+00 -3.000000000000e+01
1.000000000000e-01 0.000000000000e+00 -3.000000000000e+01
5.000000000000e-02 0.000000000000e+00 -3.100000000000e+01
1.000000000000e-01 0.000000000000e+00 -3.100000000000e+01
5.000000000000e-02 0.000000000000e+00 -3.200000000000e+01
1.000000000000e-01 0.000000000000e+00 -3.200000000000e+01
5.000000000000e-02 0.000000000000e+00 -3.300000000000e+01
1.000000000000e-01 0.000000000000e+00 -3.300000000000e+01
5.000000000000e-02 0.000000000000e+00 -3.400000000000e+01
1.000000000000e-01 0.000000000000e+00 -3.400000000000e+01
5.000000000000e-02 0.000000000000e+00 -3.500000000000e+01
1.000000000000e-01 0.000000000000e+00 -3.500000000000e+01
5.000000000000e-02 0.000000000000e+00 -3.600000000000e+01
1.000000000000e-01 0.000000000000e+00 -3.600000000000e+01
5.000000000000e-02 0.000000000000e+00 -3.700000000000e+01
1.000000000000e-01 0.000000000000e+00 -3.700000000000e+01
5.000000000000e-02 0.000000000000e+00 -3.800000000000e+01
1.000000000000e-01 0.000000000000e+00 -3.800000000000e+01
5.000000000000e-02 0.000000000000e+00 -3.900000000000e+01
1.000000000000e-01 0.000000000000e+00 -3.900000000000e+01
5.000000000000e-02 0.000000000000e+00 -4.000000000000e+01
1.000000000000e-01 0.000000000000e+00 -4.000000000000e+01
2.000000000000e-01 0.000000000000e+00 -2.100000000000e+01
2.000000000000e-01 0.000000000000e+00 -2.000000000000e+01
2.000000000000e-01 0.000000000000e+00 -2.200000000000e+01
2.000000000000e-01 0.000000000000e+00 -2.300000000000e+01
2.000000000000e-01 0.000000000000e+00 -2.400000000000e+01
2.000000000000e-01 0.000000000000e+00 -2.500000000000e+01
2.000000000000e-01 0.000000000000e+00 -2.600000000000e+01
2.000000000000e-01 0.000000000000e+00 -2.700000000000e+01
2.000000000000e-01 0.000000000000e+00 -2.800000000000e+01
2.000000000000e-01 0.000000000000e+00 -2.900000000000e+01
2.000000000000e-01 0.000000000000e+00 -3.000000000000e+01
2.000000000000e-01 0.000000000000e+00 -3.100000000000e+01
2.000000000000e-01 0.000000000000e+00 -3.200000000000e+01
2.000000000000e-01 0.000000000000e+00 -3.300000000000e+01
2.000000000000e-01 0.000000000000e+00 -3.400000000000e+01
2.000000000000e-01 0.000000000000e+00 -3.500000000000e+01
2.000000000000e-01 0.000000000000e+00 -3.600000000000e+01
2.000000000000e-01 0.000000000000e+00 -3.700000000000e+01
2.000000000000e-01 0.000000000000e+00 -3.800000000000e+01
2.000000000000e-01 0.000000000000e+00 -3.900000000000e+01
2.000000000000e-01 0.000000000000e+00 -4.000000000000e+01
3.000000000000e-01 0.000000000000e+00 -2.100000000000e+01
3.000000000000e-01 0.000000000000e+00 -2.000000000000e+01
3.000000000000e-01 0.000000000000e+00 -2.200000000000e+01
3.000000000000e-01 0.000000000000e+00 -2.300000000000e+01
3.000000000000e-01 0.000000000000e+00 -2.400000000000e+01
3.000000000000e-01 0.000000000000e+00 -2.500000000000e+01
3.000000000000e-01 0.000000000000e+00 -2.600000000000e+01
3.000000000000e-01 0.000000000000e+00 -2.700000000000e+01
3.000000000000e-01 0.000000000000e+00 -2.800000000000e+01
3.000000000000e-01 0.000000000000e+00 -2.900000000000e+01
3.000000000000e-01 0.000000000000e+00 -3.000000000000e+01
3.000000000000e-01 0.000000000000e+00 -3.100000000000e+01
3.000000000000e-01 0.000000000000e+00 -3.200000000000e+01
3.000000000000e-01 0.000000000000e+00 -3.300000000000e+01
3.000000000000e-01 0.000000000000e+00 -3.400000000000e+01
3.000000000000e-01 0.000000000000e+00 -3.500000000000e+01
3.000000000000e-01 0.000000000000e+00 -3.600000000000e+01
3.000000000000e-01 0.000000000000e+00 -3.700000000000e+01
3.000000000000e-01 0.000000000000e+00 -3.800000000000e+01
3.000000000000e-01 0.000000000000e+00 -3.900000000000e+01
3.000000000000e-01 0.000000000000e+00 -4.000000000000e+01
3.017908699421e+01 0.000000000000e+00 -2.100000000000e+01
3.017908699421e+01 0.000000000000e+00 -2.000000000000e+01
2.873036212330e+01 0.000000000000e+00 -2.100000000000e+01
2.873036212330e+01 0.000000000000e+00 -2.000000000000e+01
2.734614430377e+01 0.000000000000e+00 -2.100000000000e+01
2.734614430377e+01 0.000000000000e+00 -2.000000000000e+01
2.602356124444e+01 0.000000000000e+00 -2.100000000000e+01
2.602356124444e+01 0.000000000000e+00 -2.000000000000e+01
2.475986854800e+01 0.000000000000e+00 -2.100000000000e+01
2.475986854800e+01 0.000000000000e+00 -2.000000000000e+01
2.355244401630e+01 0.000000000000e+00 -2.100000000000e+01
2.355244401630e+01 0.000000000000e+00 -2.000000000000e+01
2.239878220923e+01 0.000000000000e+00 -2.100000000000e+01
2.239878220923e+01 0.000000000000e+00 -2.000000000000e+01
2.129648924588e+01 0.000000000000e+00 -2.100000000000e+01
2.129648924588e+01 0.000000000000e+00 -2.000000000000e+01
2.024327783711e+01 0.000000000000e+00 -2.100000000000e+01
2.024327783711e+01 0.000000000000e+00 -2.000000000000e+01
1.923696253941e+01 0.000000000000e+00 -2.100000000000e+01
1.923696253941e+01 0.000000000000e+00 -2.000000000000e+01
1.827545522004e+01 0.000000000000e+00 -2.100000000000e+01
1.827545522004e+01 0.000000000000e+00 -2.000000000000e+01
1.735676072407e+01 0.000000000000e+00 -2.100000000000e+01
1.735676072407e+01 0.000000000000e+00 -2.000000000000e+01
1.647897273441e+01 0.000000000000e+00 -2.100000000000e+01
1.647897273441e+01 0.000000000000e+00 -2.000000000000e+01
1.564026981610e+01 0.000000000000e+00 -2.100000000000e+01
1.564026981610e+01 0.000000000000e+00 -2.000000000000e+01
1.483891163683e+01 0.000000000000e+00 -2.100000000000e+01
1.483891163683e+01 0.000000000000e+00 -2.000000000000e+01
1.407323535568e+01 0.000000000000e+00 -2.100000000000e+01
1.407323535568e+01 0.000000000000e+00 -2.000000000000e+01
1.334165217268e+01 0.000000000000e+00 -2.100000000000e+01
1.334165217268e+01 0.000000000000e+00 -2.000000000000e+01
1.264264403200e+01 0.000000000000e+00 -2.100000000000e+01
1.264264403200e+01 0.000000000000e+00 -2.000000000000e+01
1.197476047194e+01 0.000000000000e+00 -2.100000000000e+01
1.197476047194e+01 0.000000000000e+00 -2.000000000000e+01
1.133661561520e+01 0.000000000000e+00 -2.100000000000e+01
1.133661561520e+01 0.000000000000e+00 -2.000000000000e+01
1.072688529313e+01 0.000000000000e+00 -2.100000000000e+01
1.072688529313e+01 0.000000000000e+00 -2.000000000000e+01
1.014430429803e+01 0.000000000000e+00 -2.100000000000e+01
1.014430429803e+01 0.000000000000e+00 -2.000000000000e+01
9.587663757842e+00 0.000000000000e+00 -2.100000000000e+01
9.587663757842e+00 0.000000000000e+00 -2.000000000000e+01
9.055808627670e+00 0.000000000000e+00 -2.100000000000e+01
9.055808627670e+00 0.000000000000e+00 -2.000000000000e+01
8.547635293055e+00 0.000000000000e+00 -2.100000000000e+01
8.547635293055e+00 0.000000000000e+00 -2.000000000000e+01
8.062089279933e+00 0.000000000000e+00 -2.100000000000e+01
8.062089279933e+00 0.000000000000e+00 -2.000000000000e+01
7.598163066571e+00 0.000000000000e+00 -2.100000000000e+01
7.598163066571e+00 0.000000000000e+00 -2.000000000000e+01
7.154893992937e+00 0.000000000000e+00 -2.100000000000e+01
7.154893992937e+00 0.000000000000e+00 -2.000000000000e+01
6.731362263145e+00 0.000000000000e+00 -2.100000000000e+01
6.731362263145e+00 0.000000000000e+00 -2.000000000000e+01
6.326689036858e+00 0.000000000000e+00 -2.100000000000e+01
6.326689036858e+00 0.000000000000e+00 -2.000000000000e+01
5.940034605670e+00 0.000000000000e+00 -2.100000000000e+01
5.940034605670e+00 0.000000000000e+00 -2.000000000000e+01
5.570596650682e+00 0.000000000000e+00 -2.100000000000e+01
5.570596650682e+00 0.000000000000e+00 -2.000000000000e+01
5.217608577672e+00 0.000000000000e+00 -2.100000000000e+01
5.217608577672e+00 0.000000000000e+00 -2.000000000000e+01
4.880337926390e+00 0.000000000000e+00 -2.100000000000e+01
4.880337926390e+00 0.000000000000e+00 -2.000000000000e+01
4.558084850681e+00 0.000000000000e+00 -2.100000000000e+01
4.558084850681e+00 0.000000000000e+00 -2.000000000000e+01
4.250180666284e+00 0.000000000000e+00 -2.100000000000e+01
4.250180666284e+00 0.000000000000e+00 -2.000000000000e+01
3.955986463295e+00 0.000000000000e+00 -2.100000000000e+01
3.955986463295e+00 0.000000000000e+00 -2.000000000000e+01
3.674891780407e+00 0.000000000000e+00 -2.100000000000e+01
3.674891780407e+00 0.000000000000e+00 -2.000000000000e+01
3.406313338193e+00 0.000000000000e+00 -2.100000000000e+01
3.406313338193e+00 0.000000000000e+00 -2.000000000000e+01
3.149693828776e+00 0.000000000000e+00 -2.100000000000e+01
3.149693828776e+00 0.000000000000e+00 -2.000000000000e+01
2.904500759404e+00 0.000000000000e+00 -2.100000000000e+01
2.904500759404e+00 0.000000000000e+00 -2.000000000000e+01
2.670225347514e+00 0.000000000000e+00 -2.100000000000e+01
2.670225347514e+00 0.000000000000e+00 -2.000000000000e+01
2.446381464989e+00 0.000000000000e+00 -2.100000000000e+01
[...]
POINT_DATA 2478
SCALARS PRESSURE1 double 1
LOOKUP_TABLE default
2.870225396457e+05
2.968325396458e+05
2.977982113463e+05
2.879882113463e+05
3.066425396457e+05
3.076082113463e+05
3.164525396457e+05
3.174182113463e+05
3.262625396457e+05
3.272282113463e+05
3.360725396457e+05
3.370382113462e+05
3.458825396457e+05
3.468482113462e+05
3.556925396457e+05
3.566582113462e+05
3.655025396457e+05
3.664682113462e+05
3.753125396457e+05
3.762782113462e+05
3.851225396457e+05
3.860882113462e+05
3.949325396457e+05
3.958982113462e+05
4.047425396457e+05
4.057082113462e+05
4.145525396457e+05
4.155182113462e+05
4.243625396457e+05
4.253282113462e+05
4.341725396457e+05
4.351382113462e+05
4.439825396457e+05
4.449482113463e+05
4.537925396457e+05
4.547582113463e+05
4.636025396457e+05
4.645682113463e+05
4.734125396457e+05
4.743782113463e+05
4.832225396457e+05
4.841882113463e+05
2.987638830468e+05
2.889538830468e+05
3.085738830468e+05
3.183838830468e+05
3.281938830468e+05
3.380038830468e+05
3.478138830468e+05
3.576238830468e+05
3.674338830468e+05
3.772438830468e+05
3.870538830468e+05
3.968638830468e+05
4.066738830468e+05
4.164838830468e+05
4.262938830468e+05
4.361038830468e+05
4.459138830468e+05
4.557238830468e+05
4.655338830468e+05
4.753438830468e+05
4.851538830468e+05
2.993432860672e+05
2.895332860672e+05
3.091532860672e+05
3.189632860671e+05
3.287732860671e+05
3.385832860671e+05
3.483932860671e+05
3.582032860671e+05
3.680132860671e+05
3.778232860671e+05
3.876332860671e+05
3.974432860671e+05
4.072532860671e+05
4.170632860671e+05
4.268732860671e+05
4.366832860671e+05
4.464932860671e+05
4.563032860671e+05
4.661132860672e+05
4.759232860672e+05
4.857332860672e+05
3.060100000000e+05
2.962000000000e+05
3.059387554392e+05
2.961287554392e+05
3.058672442096e+05
2.960572442096e+05
3.057954517375e+05
2.959854517375e+05
3.057233625375e+05
2.959133625375e+05
3.056509601433e+05
2.958409601433e+05
3.055782270314e+05
2.957682270314e+05
3.055051445386e+05
2.956951445386e+05
3.054316927701e+05
2.956216927701e+05
3.053578504989e+05
2.955478504989e+05
3.052835950552e+05
2.954735950552e+05
3.052089022033e+05
2.953989022033e+05
3.051337460060e+05
2.953237460060e+05
3.050580986735e+05
2.952480986735e+05
3.049819303961e+05
2.951719303961e+05
3.049052091568e+05
2.950952091568e+05
3.048279005219e+05
2.950179005219e+05
3.047499674071e+05
2.949399674071e+05
3.046713698133e+05
2.948613698133e+05
3.045920645299e+05
2.947820645299e+05
3.045120047987e+05
2.947020047987e+05
3.044311399332e+05
2.946211399332e+05
3.043494148844e+05
2.945394148844e+05
3.042667697467e+05
2.944567697467e+05
3.041831391894e+05
2.943731391894e+05
3.040984518048e+05
2.942884518048e+05
3.040126293534e+05
2.942026293534e+05
3.039255858888e+05
2.941155858888e+05
3.038372267375e+05
2.940272267375e+05
3.037474473040e+05
2.939374473040e+05
3.036561316635e+05
2.938461316635e+05
3.035631508955e+05
2.937531508955e+05
3.034683610990e+05
2.936583610990e+05
3.033716010132e+05
2.935616010132e+05
3.032726891453e+05
2.934626891453e+05
3.031714202780e+05
2.933614202780e+05
3.030675611882e+05
2.932575611882e+05
3.029608453535e+05
2.931508453535e+05
3.028509663442e+05
2.930409663442e+05
3.027375694892e+05
2.929275694892e+05
3.026202412444e+05
2.928102412444e+05
3.024984954593e+05
2.926884954593e+05
3.023717553888e+05
2.925617553888e+05
3.022393297623e+05
2.924293297623e+05
3.021003803894e+05
2.922903803894e+05
3.019538774353e+05
2.921438774353e+05
3.017985362707e+05
2.919885362708e+05
3.016327259674e+05
2.918227259674e+05
3.014543326570e+05
2.916443326570e+05
3.012605481085e+05
2.914505481085e+05
3.010475283780e+05
2.912375283780e+05
3.008098132858e+05
2.909998132858e+05
3.005392728548e+05
2.907292728548e+05
3.002230281016e+05
2.904130281016e+05
2.998388583304e+05
2.900288583304e+05
3.158200000000e+05
3.157487554392e+05
3.156772442096e+05
3.156054517375e+05
3.155333625375e+05
3.154609601433e+05
3.153882270314e+05
3.153151445386e+05
3.152416927701e+05
3.151678504989e+05
3.150935950552e+05
3.150189022033e+05
3.149437460060e+05
3.148680986735e+05
3.147919303961e+05
3.147152091568e+05
3.146379005219e+05
3.145599674071e+05
3.144813698133e+05
3.144020645299e+05
3.143220047987e+05
3.142411399332e+05
3.141594148844e+05
3.140767697467e+05
3.139931391894e+05
3.139084518048e+05
3.138226293534e+05
3.137355858888e+05
3.136472267375e+05
3.135574473040e+05
3.134661316635e+05
3.133731508955e+05
3.132783610990e+05
3.131816010132e+05
3.130826891453e+05
3.129814202780e+05
3.128775611882e+05
3.127708453535e+05
3.126609663442e+05
3.125475694892e+05
3.124302412444e+05
3.123084954593e+05
3.121817553888e+05
3.120493297623e+05
3.119103803894e+05
3.117638774353e+05
3.116085362707e+05
3.114427259674e+05
3.112643326570e+05
3.110705481085e+05
3.108575283780e+05
3.106198132858e+05
3.103492728548e+05
3.100330281016e+05
3.096488583304e+05
3.256300000000e+05
3.255587554392e+05
3.254872442096e+05
3.254154517375e+05
3.253433625375e+05
3.252709601433e+05
3.251982270314e+05
3.251251445386e+05
3.250516927701e+05
3.249778504989e+05
3.249035950552e+05
3.248289022033e+05
3.247537460060e+05
3.246780986735e+05
3.246019303961e+05
3.245252091568e+05
3.244479005219e+05
3.243699674071e+05
3.242913698133e+05
3.242120645299e+05
3.241320047987e+05
3.240511399332e+05
3.239694148844e+05
3.238867697467e+05
3.238031391894e+05
3.237184518048e+05
3.236326293534e+05
3.235455858888e+05
3.234572267375e+05
3.233674473040e+05
3.232761316635e+05
3.231831508955e+05
3.230883610990e+05
3.229916010132e+05
3.228926891453e+05
3.227914202780e+05
3.226875611882e+05
3.225808453535e+05
3.224709663442e+05
3.223575694892e+05
3.222402412444e+05
3.221184954593e+05
3.219917553888e+05
3.218593297623e+05
3.217203803894e+05
3.215738774353e+05
3.214185362707e+05
3.212527259674e+05
3.210743326570e+05
3.208805481085e+05
3.206675283780e+05
3.204298132858e+05
3.201592728547e+05
3.198430281016e+05
3.194588583304e+05
3.354400000000e+05
3.353687554392e+05
3.352972442096e+05
3.352254517375e+05
3.351533625375e+05
3.350809601433e+05
3.350082270314e+05
3.349351445386e+05
3.348616927701e+05
3.347878504989e+05
3.347135950552e+05
3.346389022033e+05
3.345637460060e+05
3.344880986735e+05
3.344119303961e+05
3.343352091568e+05
3.342579005219e+05
3.341799674071e+05
3.341013698133e+05
3.340220645299e+05
3.339420047987e+05
3.338611399332e+05
3.337794148844e+05
3.336967697467e+05
3.336131391894e+05
3.335284518048e+05
3.334426293534e+05
3.333555858888e+05
3.332672267375e+05
3.331774473040e+05
3.330861316635e+05
3.329931508955e+05
3.328983610990e+05
3.328016010132e+05
3.327026891453e+05
3.326014202780e+05
3.324975611882e+05
3.323908453535e+05
3.322809663442e+05
3.321675694892e+05
3.320502412444e+05
3.319284954593e+05
3.318017553888e+05
3.316693297623e+05
3.315303803894e+05
3.313838774353e+05
3.312285362707e+05
3.310627259674e+05
3.308843326570e+05
3.306905481085e+05
3.304775283780e+05
3.302398132858e+05
3.299692728547e+05
3.296530281016e+05
3.292688583304e+05
3.452500000000e+05
3.451787554392e+05
3.451072442096e+05
3.450354517375e+05
3.449633625375e+05
3.448909601433e+05
3.448182270314e+05
3.447451445386e+05
3.446716927701e+05
3.445978504989e+05
3.445235950552e+05
3.444489022033e+05
3.443737460060e+05
3.442980986735e+05
3.442219303961e+05
3.441452091568e+05
3.440679005219e+05
3.439899674071e+05
3.439113698133e+05
3.438320645299e+05
3.437520047987e+05
3.436711399332e+05
3.435894148844e+05
3.435067697467e+05
3.434231391894e+05
3.433384518048e+05
3.432526293534e+05
3.431655858888e+05
3.430772267375e+05
3.429874473040e+05
3.428961316635e+05
3.428031508955e+05
3.427083610990e+05
3.426116010132e+05
3.425126891453e+05
3.424114202780e+05
3.423075611882e+05
3.422008453535e+05
3.420909663442e+05
3.419775694892e+05
3.418602412443e+05
3.417384954593e+05
3.416117553888e+05
3.414793297623e+05
3.413403803894e+05
3.411938774353e+05
3.410385362707e+05
3.408727259674e+05
3.406943326570e+05
3.405005481085e+05
3.402875283780e+05
3.400498132858e+05
3.397792728547e+05
3.394630281016e+05
3.390788583303e+05
3.550600000000e+05
3.549887554392e+05
3.549172442096e+05
3.548454517375e+05
3.547733625375e+05
3.547009601433e+05
3.546282270314e+05
3.545551445386e+05
3.544816927701e+05
3.544078504989e+05
3.543335950552e+05
3.542589022033e+05
3.541837460060e+05
3.541080986735e+05
3.540319303961e+05
3.539552091568e+05
3.538779005219e+05
3.537999674071e+05
3.537213698133e+05
3.536420645299e+05
3.535620047987e+05
3.534811399332e+05
3.533994148844e+05
3.533167697467e+05
3.532331391894e+05
3.531484518048e+05
3.530626293534e+05
3.529755858888e+05
3.528872267375e+05
3.527974473040e+05
3.527061316635e+05
3.526131508955e+05
3.525183610990e+05
3.524216010132e+05
3.523226891453e+05
3.522214202780e+05
3.521175611882e+05
3.520108453535e+05
3.519009663442e+05
3.517875694892e+05
3.516702412443e+05
3.515484954593e+05
3.514217553888e+05
3.512893297623e+05
3.511503803894e+05
3.510038774353e+05
3.508485362707e+05
3.506827259674e+05
3.505043326570e+05
3.503105481085e+05
3.500975283780e+05
3.498598132858e+05
3.495892728547e+05
3.492730281016e+05
3.488888583303e+05
3.648700000000e+05
3.647987554392e+05
3.647272442096e+05
3.646554517375e+05
3.645833625375e+05
3.645109601433e+05
3.644382270314e+05
3.643651445386e+05
3.642916927701e+05
3.642178504989e+05
3.641435950552e+05
3.640689022033e+05
3.639937460060e+05
3.639180986735e+05
3.638419303961e+05
3.637652091568e+05
3.636879005219e+05
3.636099674071e+05
3.635313698133e+05
3.634520645299e+05
3.633720047987e+05
3.632911399332e+05
3.632094148844e+05
3.631267697467e+05
3.630431391894e+05
3.629584518048e+05
3.628726293534e+05
3.627855858888e+05
3.626972267375e+05
3.626074473040e+05
3.625161316635e+05
3.624231508955e+05
3.623283610990e+05
3.622316010132e+05
3.621326891453e+05
3.620314202780e+05
3.619275611882e+05
3.618208453535e+05
3.617109663442e+05
3.615975694892e+05
3.614802412443e+05
3.613584954593e+05
3.612317553888e+05
3.610993297623e+05
3.609603803894e+05
3.608138774353e+05
3.606585362707e+05
3.604927259674e+05
3.603143326570e+05
3.601205481085e+05
3.599075283780e+05
3.596698132858e+05
3.593992728547e+05
3.590830281016e+05
3.586988583303e+05
3.746800000000e+05
3.746087554392e+05
3.745372442096e+05
3.744654517375e+05
3.743933625375e+05
3.743209601433e+05
3.742482270314e+05
3.741751445386e+05
3.741016927701e+05
3.740278504989e+05
3.739535950552e+05
3.738789022033e+05
3.738037460060e+05
3.737280986735e+05
3.736519303961e+05
3.735752091568e+05
3.734979005219e+05
3.734199674071e+05
3.733413698133e+05
3.732620645299e+05
3.731820047987e+05
3.731011399332e+05
3.730194148844e+05
3.729367697466e+05
3.728531391894e+05
3.727684518048e+05
3.726826293534e+05
3.725955858888e+05
3.725072267375e+05
3.724174473040e+05
3.723261316635e+05
3.722331508955e+05
3.721383610990e+05
3.720416010132e+05
3.719426891453e+05
3.718414202780e+05
3.717375611882e+05
3.716308453535e+05
3.715209663442e+05
3.714075694892e+05
3.712902412443e+05
3.711684954593e+05
3.710417553888e+05
3.709093297623e+05
3.707703803894e+05
3.706238774353e+05
3.704685362707e+05
3.703027259674e+05
3.701243326570e+05
3.699305481085e+05
3.697175283780e+05
3.694798132858e+05
3.692092728547e+05
3.688930281016e+05
3.685088583303e+05
3.844900000000e+05
3.844187554392e+05
3.843472442096e+05
3.842754517375e+05
3.842033625375e+05
3.841309601433e+05
3.840582270314e+05
3.839851445386e+05
3.839116927701e+05
3.838378504989e+05
3.837635950552e+05
3.836889022033e+05
3.836137460060e+05
3.835380986735e+05
3.834619303961e+05
3.833852091568e+05
3.833079005219e+05
3.832299674071e+05
3.831513698133e+05
3.830720645299e+05
3.829920047987e+05
3.829111399332e+05
3.828294148844e+05
3.827467697466e+05
3.826631391894e+05
3.825784518048e+05
3.824926293534e+05
3.824055858888e+05
3.823172267375e+05
3.822274473040e+05
3.821361316635e+05
3.820431508955e+05
3.819483610990e+05
3.818516010132e+05
3.817526891453e+05
3.816514202780e+05
3.815475611882e+05
3.814408453535e+05
3.813309663442e+05
3.812175694892e+05
3.811002412443e+05
3.809784954593e+05
3.808517553888e+05
3.807193297623e+05
3.805803803894e+05
3.804338774353e+05
3.802785362707e+05
3.801127259674e+05
3.799343326570e+05
3.797405481085e+05
3.795275283780e+05
3.792898132858e+05
3.790192728547e+05
3.787030281016e+05
3.783188583303e+05
3.943000000000e+05
3.942287554392e+05
3.941572442096e+05
3.940854517375e+05
3.940133625375e+05
3.939409601433e+05
3.938682270314e+05
3.937951445386e+05
3.937216927701e+05
3.936478504989e+05
3.935735950552e+05
3.934989022033e+05
3.934237460060e+05
3.933480986735e+05
3.932719303961e+05
3.931952091568e+05
3.931179005219e+05
3.930399674071e+05
3.929613698133e+05
3.928820645299e+05
3.928020047987e+05
3.927211399332e+05
3.926394148844e+05
3.925567697466e+05
3.924731391894e+05
3.923884518048e+05
3.923026293534e+05
3.922155858888e+05
3.921272267375e+05
3.920374473040e+05
3.919461316635e+05
3.918531508955e+05
3.917583610990e+05
3.916616010132e+05
3.915626891453e+05
3.914614202780e+05
3.913575611882e+05
3.912508453535e+05
3.911409663442e+05
3.910275694892e+05
3.909102412443e+05
3.907884954593e+05
3.906617553888e+05
3.905293297623e+05
3.903903803894e+05
3.902438774353e+05
3.900885362707e+05
3.899227259674e+05
3.897443326570e+05
3.895505481085e+05
3.893375283780e+05
3.890998132858e+05
3.888292728547e+05
3.885130281016e+05
3.881288583303e+05
4.041100000000e+05
4.040387554392e+05
4.039672442096e+05
4.038954517375e+05
4.038233625375e+05
4.037509601433e+05
4.036782270314e+05
4.036051445386e+05
4.035316927701e+05
4.034578504989e+05
4.033835950552e+05
4.033089022033e+05
4.032337460060e+05
4.031580986735e+05
4.030819303961e+05
4.030052091568e+05
4.029279005219e+05
4.028499674071e+05
4.027713698133e+05
4.026920645299e+05
4.026120047987e+05
4.025311399332e+05
4.024494148844e+05
4.023667697466e+05
4.022831391894e+05
4.021984518048e+05
4.021126293534e+05
4.020255858888e+05
4.019372267375e+05
4.018474473040e+05
4.017561316635e+05
4.016631508955e+05
4.015683610990e+05
4.014716010132e+05
4.013726891453e+05
4.012714202780e+05
4.011675611882e+05
4.010608453535e+05
4.009509663442e+05
4.008375694892e+05
4.007202412443e+05
4.005984954593e+05
4.004717553888e+05
4.003393297623e+05
4.002003803894e+05
4.000538774353e+05
3.998985362707e+05
3.997327259674e+05
3.995543326570e+05
3.993605481085e+05
3.991475283780e+05
3.989098132858e+05
3.986392728547e+05
3.983230281016e+05
3.979388583303e+05
4.139200000000e+05
4.138487554392e+05
4.137772442096e+05
4.137054517375e+05
4.136333625375e+05
4.135609601433e+05
4.134882270314e+05
4.134151445386e+05
4.133416927701e+05
4.132678504989e+05
4.131935950552e+05
4.131189022033e+05
4.130437460060e+05
4.129680986735e+05
4.128919303961e+05
4.128152091568e+05
4.127379005219e+05
4.126599674071e+05
4.125813698133e+05
4.125020645299e+05
4.124220047987e+05
4.123411399332e+05
4.122594148844e+05
4.121767697466e+05
4.120931391894e+05
4.120084518048e+05
4.119226293534e+05
4.118355858888e+05
4.117472267375e+05
4.116574473040e+05
4.115661316635e+05
4.114731508955e+05
4.113783610990e+05
4.112816010132e+05
4.111826891453e+05
4.110814202780e+05
4.109775611882e+05
4.108708453535e+05
4.107609663442e+05
4.106475694892e+05
4.105302412443e+05
4.104084954593e+05
4.102817553888e+05
4.101493297623e+05
4.100103803894e+05
4.098638774353e+05
4.097085362707e+05
4.095427259674e+05
4.093643326570e+05
4.091705481085e+05
4.089575283780e+05
4.087198132858e+05
4.084492728547e+05
4.081330281016e+05
4.077488583303e+05
4.237300000000e+05
4.236587554392e+05
4.235872442096e+05
4.235154517375e+05
4.234433625375e+05
4.233709601433e+05
4.232982270314e+05
4.232251445386e+05
4.231516927701e+05
4.230778504989e+05
4.230035950552e+05
4.229289022033e+05
4.228537460060e+05
4.227780986735e+05
4.227019303961e+05
4.226252091568e+05
4.225479005219e+05
4.224699674071e+05
4.223913698133e+05
4.223120645299e+05
4.222320047987e+05
4.221511399332e+05
4.220694148844e+05
4.219867697466e+05
4.219031391894e+05
4.218184518048e+05
4.217326293534e+05
4.216455858888e+05
4.215572267375e+05
4.214674473040e+05
4.213761316635e+05
4.212831508955e+05
4.211883610990e+05
4.210916010132e+05
4.209926891453e+05
4.208914202780e+05
4.207875611882e+05
4.206808453535e+05
4.205709663442e+05
4.204575694892e+05
4.203402412443e+05
4.202184954593e+05
4.200917553888e+05
4.199593297623e+05
4.198203803894e+05
4.196738774353e+05
4.195185362707e+05
4.193527259674e+05
4.191743326570e+05
4.189805481085e+05
4.187675283780e+05
4.185298132858e+05
4.182592728547e+05
4.179430281016e+05
4.175588583303e+05
4.335400000000e+05
4.334687554392e+05
4.333972442096e+05
4.333254517375e+05
4.332533625375e+05
4.331809601433e+05
4.331082270314e+05
4.330351445386e+05
4.329616927701e+05
4.328878504989e+05
4.328135950552e+05
4.327389022033e+05
4.326637460060e+05
4.325880986735e+05
4.325119303961e+05
4.324352091568e+05
4.323579005219e+05
4.322799674071e+05
4.322013698133e+05
4.321220645299e+05
4.320420047987e+05
4.319611399332e+05
4.318794148844e+05
4.317967697466e+05
4.317131391894e+05
4.316284518048e+05
4.315426293534e+05
4.314555858888e+05
4.313672267375e+05
4.312774473040e+05
4.311861316635e+05
4.310931508955e+05
4.309983610990e+05
4.309016010132e+05
4.308026891453e+05
4.307014202780e+05
4.305975611882e+05
4.304908453535e+05
4.303809663442e+05
4.302675694892e+05
4.301502412443e+05
4.300284954593e+05
4.299017553888e+05
4.297693297623e+05
4.296303803894e+05
4.294838774353e+05
4.293285362707e+05
4.291627259674e+05
4.289843326570e+05
4.287905481085e+05
4.285775283780e+05
4.283398132858e+05
4.280692728547e+05
4.277530281016e+05
4.273688583303e+05
4.433500000000e+05
4.432787554392e+05
4.432072442096e+05
4.431354517375e+05
4.430633625375e+05
4.429909601433e+05
4.429182270314e+05
4.428451445386e+05
4.427716927701e+05
4.426978504989e+05
4.426235950552e+05
4.425489022033e+05
4.424737460060e+05
4.423980986735e+05
4.423219303961e+05
4.422452091568e+05
4.421679005219e+05
4.420899674071e+05
4.420113698133e+05
4.419320645299e+05
4.418520047987e+05
4.417711399332e+05
4.416894148844e+05
4.416067697466e+05
4.415231391894e+05
4.414384518048e+05
4.413526293534e+05
4.412655858888e+05
4.411772267375e+05
4.410874473040e+05
4.409961316635e+05
4.409031508955e+05
4.408083610990e+05
4.407116010132e+05
4.406126891453e+05
4.405114202780e+05
4.404075611882e+05
4.403008453535e+05
4.401909663442e+05
4.400775694892e+05
4.399602412444e+05
4.398384954593e+05
4.397117553888e+05
4.395793297623e+05
4.394403803894e+05
4.392938774353e+05
4.391385362707e+05
4.389727259674e+05
4.387943326570e+05
4.386005481085e+05
4.383875283780e+05
4.381498132858e+05
4.378792728547e+05
4.375630281016e+05
4.371788583303e+05
4.531600000000e+05
4.530887554392e+05
4.530172442096e+05
4.529454517375e+05
4.528733625375e+05
4.528009601433e+05
4.527282270314e+05
4.526551445386e+05
4.525816927701e+05
4.525078504989e+05
4.524335950552e+05
4.523589022033e+05
4.522837460060e+05
4.522080986735e+05
4.521319303961e+05
4.520552091568e+05
4.519779005219e+05
4.518999674071e+05
4.518213698133e+05
4.517420645299e+05
4.516620047987e+05
4.515811399332e+05
4.514994148844e+05
4.514167697466e+05
4.513331391894e+05
4.512484518048e+05
4.511626293534e+05
4.510755858888e+05
4.509872267375e+05
4.508974473040e+05
4.508061316635e+05
4.507131508955e+05
4.506183610990e+05
4.505216010132e+05
4.504226891453e+05
4.503214202780e+05
4.502175611882e+05
4.501108453535e+05
4.500009663442e+05
4.498875694892e+05
4.497702412444e+05
4.496484954593e+05
4.495217553888e+05
4.493893297623e+05
4.492503803894e+05
4.491038774353e+05
4.489485362707e+05
4.487827259674e+05
4.486043326570e+05
4.484105481085e+05
4.481975283780e+05
4.479598132858e+05
4.476892728547e+05
4.473730281016e+05
4.469888583304e+05
4.629700000000e+05
4.628987554392e+05
4.628272442096e+05
4.627554517375e+05
4.626833625375e+05
4.626109601433e+05
4.625382270314e+05
4.624651445386e+05
4.623916927701e+05
4.623178504989e+05
4.622435950552e+05
4.621689022033e+05
4.620937460060e+05
4.620180986735e+05
4.619419303961e+05
4.618652091568e+05
4.617879005219e+05
4.617099674071e+05
4.616313698133e+05
4.615520645299e+05
4.614720047987e+05
4.613911399332e+05
4.613094148844e+05
4.612267697466e+05
4.611431391894e+05
4.610584518048e+05
4.609726293534e+05
4.608855858888e+05
4.607972267375e+05
4.607074473040e+05