# vtk DataFile Version 3.0
Unstructured Grid from OpenGeoSys
ASCII
DATASET UNSTRUCTURED_GRID
FIELD TimesAndCycles 2
TIME 1 1 double
8.640000000000e+04
CYLCE 1 1 long
1
POINTS 2478 double
5.000000000000e-02 0.000000000000e+00 -2.000000000000e+01
5.000000000000e-02 0.000000000000e+00 -2.100000000000e+01
1.000000000000e-01 0.000000000000e+00 -2.100000000000e+01
1.000000000000e-01 0.000000000000e+00 -2.000000000000e+01
5.000000000000e-02 0.000000000000e+00 -2.200000000000e+01
1.000000000000e-01 0.000000000000e+00 -2.200000000000e+01
5.000000000000e-02 0.000000000000e+00 -2.300000000000e+01
1.000000000000e-01 0.000000000000e+00 -2.300000000000e+01
5.000000000000e-02 0.000000000000e+00 -2.400000000000e+01
1.000000000000e-01 0.000000000000e+00 -2.400000000000e+01
5.000000000000e-02 0.000000000000e+00 -2.500000000000e+01
1.000000000000e-01 0.000000000000e+00 -2.500000000000e+01
5.000000000000e-02 0.000000000000e+00 -2.600000000000e+01
1.000000000000e-01 0.000000000000e+00 -2.600000000000e+01
5.000000000000e-02 0.000000000000e+00 -2.700000000000e+01
1.000000000000e-01 0.000000000000e+00 -2.700000000000e+01
5.000000000000e-02 0.000000000000e+00 -2.800000000000e+01
1.000000000000e-01 0.000000000000e+00 -2.800000000000e+01
5.000000000000e-02 0.000000000000e+00 -2.900000000000e+01
1.000000000000e-01 0.000000000000e+00 -2.900000000000e+01
5.000000000000e-02 0.000000000000e+00 -3.000000000000e+01
1.000000000000e-01 0.000000000000e+00 -3.000000000000e+01
5.000000000000e-02 0.000000000000e+00 -3.100000000000e+01
1.000000000000e-01 0.000000000000e+00 -3.100000000000e+01
5.000000000000e-02 0.000000000000e+00 -3.200000000000e+01
1.000000000000e-01 0.000000000000e+00 -3.200000000000e+01
5.000000000000e-02 0.000000000000e+00 -3.300000000000e+01
1.000000000000e-01 0.000000000000e+00 -3.300000000000e+01
5.000000000000e-02 0.000000000000e+00 -3.400000000000e+01
1.000000000000e-01 0.000000000000e+00 -3.400000000000e+01
5.000000000000e-02 0.000000000000e+00 -3.500000000000e+01
1.000000000000e-01 0.000000000000e+00 -3.500000000000e+01
5.000000000000e-02 0.000000000000e+00 -3.600000000000e+01
1.000000000000e-01 0.000000000000e+00 -3.600000000000e+01
5.000000000000e-02 0.000000000000e+00 -3.700000000000e+01
1.000000000000e-01 0.000000000000e+00 -3.700000000000e+01
5.000000000000e-02 0.000000000000e+00 -3.800000000000e+01
1.000000000000e-01 0.000000000000e+00 -3.800000000000e+01
5.000000000000e-02 0.000000000000e+00 -3.900000000000e+01
1.000000000000e-01 0.000000000000e+00 -3.900000000000e+01
5.000000000000e-02 0.000000000000e+00 -4.000000000000e+01
1.000000000000e-01 0.000000000000e+00 -4.000000000000e+01
2.000000000000e-01 0.000000000000e+00 -2.100000000000e+01
2.000000000000e-01 0.000000000000e+00 -2.000000000000e+01
2.000000000000e-01 0.000000000000e+00 -2.200000000000e+01
2.000000000000e-01 0.000000000000e+00 -2.300000000000e+01
2.000000000000e-01 0.000000000000e+00 -2.400000000000e+01
2.000000000000e-01 0.000000000000e+00 -2.500000000000e+01
2.000000000000e-01 0.000000000000e+00 -2.600000000000e+01
2.000000000000e-01 0.000000000000e+00 -2.700000000000e+01
2.000000000000e-01 0.000000000000e+00 -2.800000000000e+01
2.000000000000e-01 0.000000000000e+00 -2.900000000000e+01
2.000000000000e-01 0.000000000000e+00 -3.000000000000e+01
2.000000000000e-01 0.000000000000e+00 -3.100000000000e+01
2.000000000000e-01 0.000000000000e+00 -3.200000000000e+01
2.000000000000e-01 0.000000000000e+00 -3.300000000000e+01
2.000000000000e-01 0.000000000000e+00 -3.400000000000e+01
2.000000000000e-01 0.000000000000e+00 -3.500000000000e+01
2.000000000000e-01 0.000000000000e+00 -3.600000000000e+01
2.000000000000e-01 0.000000000000e+00 -3.700000000000e+01
2.000000000000e-01 0.000000000000e+00 -3.800000000000e+01
2.000000000000e-01 0.000000000000e+00 -3.900000000000e+01
2.000000000000e-01 0.000000000000e+00 -4.000000000000e+01
3.000000000000e-01 0.000000000000e+00 -2.100000000000e+01
3.000000000000e-01 0.000000000000e+00 -2.000000000000e+01
3.000000000000e-01 0.000000000000e+00 -2.200000000000e+01
3.000000000000e-01 0.000000000000e+00 -2.300000000000e+01
3.000000000000e-01 0.000000000000e+00 -2.400000000000e+01
3.000000000000e-01 0.000000000000e+00 -2.500000000000e+01
3.000000000000e-01 0.000000000000e+00 -2.600000000000e+01
3.000000000000e-01 0.000000000000e+00 -2.700000000000e+01
3.000000000000e-01 0.000000000000e+00 -2.800000000000e+01
3.000000000000e-01 0.000000000000e+00 -2.900000000000e+01
3.000000000000e-01 0.000000000000e+00 -3.000000000000e+01
3.000000000000e-01 0.000000000000e+00 -3.100000000000e+01
3.000000000000e-01 0.000000000000e+00 -3.200000000000e+01
3.000000000000e-01 0.000000000000e+00 -3.300000000000e+01
3.000000000000e-01 0.000000000000e+00 -3.400000000000e+01
3.000000000000e-01 0.000000000000e+00 -3.500000000000e+01
3.000000000000e-01 0.000000000000e+00 -3.600000000000e+01
3.000000000000e-01 0.000000000000e+00 -3.700000000000e+01
3.000000000000e-01 0.000000000000e+00 -3.800000000000e+01
3.000000000000e-01 0.000000000000e+00 -3.900000000000e+01
3.000000000000e-01 0.000000000000e+00 -4.000000000000e+01
3.017908699421e+01 0.000000000000e+00 -2.100000000000e+01
3.017908699421e+01 0.000000000000e+00 -2.000000000000e+01
2.873036212330e+01 0.000000000000e+00 -2.100000000000e+01
2.873036212330e+01 0.000000000000e+00 -2.000000000000e+01
2.734614430377e+01 0.000000000000e+00 -2.100000000000e+01
2.734614430377e+01 0.000000000000e+00 -2.000000000000e+01
2.602356124444e+01 0.000000000000e+00 -2.100000000000e+01
2.602356124444e+01 0.000000000000e+00 -2.000000000000e+01
2.475986854800e+01 0.000000000000e+00 -2.100000000000e+01
2.475986854800e+01 0.000000000000e+00 -2.000000000000e+01
2.355244401630e+01 0.000000000000e+00 -2.100000000000e+01
2.355244401630e+01 0.000000000000e+00 -2.000000000000e+01
2.239878220923e+01 0.000000000000e+00 -2.100000000000e+01
2.239878220923e+01 0.000000000000e+00 -2.000000000000e+01
2.129648924588e+01 0.000000000000e+00 -2.100000000000e+01
2.129648924588e+01 0.000000000000e+00 -2.000000000000e+01
2.024327783711e+01 0.000000000000e+00 -2.100000000000e+01
2.024327783711e+01 0.000000000000e+00 -2.000000000000e+01
1.923696253941e+01 0.000000000000e+00 -2.100000000000e+01
1.923696253941e+01 0.000000000000e+00 -2.000000000000e+01
1.827545522004e+01 0.000000000000e+00 -2.100000000000e+01
1.827545522004e+01 0.000000000000e+00 -2.000000000000e+01
1.735676072407e+01 0.000000000000e+00 -2.100000000000e+01
1.735676072407e+01 0.000000000000e+00 -2.000000000000e+01
1.647897273441e+01 0.000000000000e+00 -2.100000000000e+01
1.647897273441e+01 0.000000000000e+00 -2.000000000000e+01
1.564026981610e+01 0.000000000000e+00 -2.100000000000e+01
1.564026981610e+01 0.000000000000e+00 -2.000000000000e+01
1.483891163683e+01 0.000000000000e+00 -2.100000000000e+01
1.483891163683e+01 0.000000000000e+00 -2.000000000000e+01
1.407323535568e+01 0.000000000000e+00 -2.100000000000e+01
1.407323535568e+01 0.000000000000e+00 -2.000000000000e+01
1.334165217268e+01 0.000000000000e+00 -2.100000000000e+01
1.334165217268e+01 0.000000000000e+00 -2.000000000000e+01
1.264264403200e+01 0.000000000000e+00 -2.100000000000e+01
1.264264403200e+01 0.000000000000e+00 -2.000000000000e+01
1.197476047194e+01 0.000000000000e+00 -2.100000000000e+01
1.197476047194e+01 0.000000000000e+00 -2.000000000000e+01
1.133661561520e+01 0.000000000000e+00 -2.100000000000e+01
1.133661561520e+01 0.000000000000e+00 -2.000000000000e+01
1.072688529313e+01 0.000000000000e+00 -2.100000000000e+01
1.072688529313e+01 0.000000000000e+00 -2.000000000000e+01
1.014430429803e+01 0.000000000000e+00 -2.100000000000e+01
1.014430429803e+01 0.000000000000e+00 -2.000000000000e+01
9.587663757842e+00 0.000000000000e+00 -2.100000000000e+01
9.587663757842e+00 0.000000000000e+00 -2.000000000000e+01
9.055808627670e+00 0.000000000000e+00 -2.100000000000e+01
9.055808627670e+00 0.000000000000e+00 -2.000000000000e+01
8.547635293055e+00 0.000000000000e+00 -2.100000000000e+01
8.547635293055e+00 0.000000000000e+00 -2.000000000000e+01
8.062089279933e+00 0.000000000000e+00 -2.100000000000e+01
8.062089279933e+00 0.000000000000e+00 -2.000000000000e+01
7.598163066571e+00 0.000000000000e+00 -2.100000000000e+01
7.598163066571e+00 0.000000000000e+00 -2.000000000000e+01
7.154893992937e+00 0.000000000000e+00 -2.100000000000e+01
7.154893992937e+00 0.000000000000e+00 -2.000000000000e+01
6.731362263145e+00 0.000000000000e+00 -2.100000000000e+01
6.731362263145e+00 0.000000000000e+00 -2.000000000000e+01
6.326689036858e+00 0.000000000000e+00 -2.100000000000e+01
6.326689036858e+00 0.000000000000e+00 -2.000000000000e+01
5.940034605670e+00 0.000000000000e+00 -2.100000000000e+01
5.940034605670e+00 0.000000000000e+00 -2.000000000000e+01
5.570596650682e+00 0.000000000000e+00 -2.100000000000e+01
5.570596650682e+00 0.000000000000e+00 -2.000000000000e+01
5.217608577672e+00 0.000000000000e+00 -2.100000000000e+01
5.217608577672e+00 0.000000000000e+00 -2.000000000000e+01
4.880337926390e+00 0.000000000000e+00 -2.100000000000e+01
4.880337926390e+00 0.000000000000e+00 -2.000000000000e+01
4.558084850681e+00 0.000000000000e+00 -2.100000000000e+01
4.558084850681e+00 0.000000000000e+00 -2.000000000000e+01
4.250180666284e+00 0.000000000000e+00 -2.100000000000e+01
4.250180666284e+00 0.000000000000e+00 -2.000000000000e+01
3.955986463295e+00 0.000000000000e+00 -2.100000000000e+01
3.955986463295e+00 0.000000000000e+00 -2.000000000000e+01
3.674891780407e+00 0.000000000000e+00 -2.100000000000e+01
3.674891780407e+00 0.000000000000e+00 -2.000000000000e+01
3.406313338193e+00 0.000000000000e+00 -2.100000000000e+01
3.406313338193e+00 0.000000000000e+00 -2.000000000000e+01
3.149693828776e+00 0.000000000000e+00 -2.100000000000e+01
3.149693828776e+00 0.000000000000e+00 -2.000000000000e+01
2.904500759404e+00 0.000000000000e+00 -2.100000000000e+01
2.904500759404e+00 0.000000000000e+00 -2.000000000000e+01
2.670225347514e+00 0.000000000000e+00 -2.100000000000e+01
2.670225347514e+00 0.000000000000e+00 -2.000000000000e+01
2.446381464989e+00 0.000000000000e+00 -2.100000000000e+01
[...]
POINT_DATA 2478
SCALARS PRESSURE1 double 1
LOOKUP_TABLE default
2.816880048361e+05
2.914980048361e+05
2.930249875205e+05
2.832149875205e+05
3.013080048360e+05
3.028349875205e+05
3.111180048360e+05
3.126449875205e+05
3.209280048360e+05
3.224549875204e+05
3.307380048360e+05
3.322649875205e+05
3.405480048360e+05
3.420749875205e+05
3.503580048360e+05
3.518849875205e+05
3.601680048360e+05
3.616949875205e+05
3.699780048360e+05
3.715049875204e+05
3.797880048360e+05
3.813149875204e+05
3.895980048360e+05
3.911249875204e+05
3.994080048360e+05
4.009349875205e+05
4.092180048360e+05
4.107449875205e+05
4.190280048360e+05
4.205549875205e+05
4.288380048360e+05
4.303649875205e+05
4.386480048360e+05
4.401749875204e+05
4.484580048360e+05
4.499849875205e+05
4.582680048360e+05
4.597949875205e+05
4.680780048361e+05
4.696049875205e+05
4.778880048361e+05
4.794149875205e+05
2.945519702050e+05
2.847419702050e+05
3.043619702049e+05
3.141719702049e+05
3.239819702049e+05
3.337919702050e+05
3.436019702049e+05
3.534119702049e+05
3.632219702049e+05
3.730319702049e+05
3.828419702049e+05
3.926519702049e+05
4.024619702049e+05
4.122719702049e+05
4.220819702049e+05
4.318919702050e+05
4.417019702049e+05
4.515119702049e+05
4.613219702049e+05
4.711319702050e+05
4.809419702050e+05
2.954681598157e+05
2.856581598157e+05
3.052781598156e+05
3.150881598156e+05
3.248981598156e+05
3.347081598156e+05
3.445181598156e+05
3.543281598156e+05
3.641381598156e+05
3.739481598156e+05
3.837581598156e+05
3.935681598156e+05
4.033781598156e+05
4.131881598156e+05
4.229981598156e+05
4.328081598156e+05
4.426181598156e+05
4.524281598156e+05
4.622381598156e+05
4.720481598157e+05
4.818581598157e+05
3.060100000000e+05
2.962000000000e+05
3.058973434826e+05
2.960873434826e+05
3.057842652913e+05
2.959742652913e+05
3.056707423810e+05
2.958607423810e+05
3.055567502655e+05
2.957467502655e+05
3.054422629068e+05
2.956322629068e+05
3.053272525960e+05
2.955172525960e+05
3.052116898214e+05
2.954016898214e+05
3.050955431241e+05
2.952855431241e+05
3.049787789388e+05
2.951687789388e+05
3.048613614183e+05
2.950513614183e+05
3.047432522395e+05
2.949332522395e+05
3.046244103888e+05
2.948144103888e+05
3.045047919235e+05
2.946947919235e+05
3.043843497064e+05
2.945743497064e+05
3.042630331099e+05
2.944530331099e+05
3.041407876856e+05
2.943307876856e+05
3.040175547931e+05
2.942075547931e+05
3.038932711833e+05
2.940832711833e+05
3.037678685289e+05
2.939578685289e+05
3.036412728928e+05
2.938312728928e+05
3.035134041260e+05
2.937034041260e+05
3.033841751818e+05
2.935741751818e+05
3.032534913331e+05
2.934434913331e+05
3.031212492754e+05
2.933112492754e+05
3.029873360937e+05
2.931773360937e+05
3.028516280708e+05
2.930416280708e+05
3.027139893027e+05
2.929039893027e+05
3.025742700856e+05
2.927642700856e+05
3.024323050262e+05
2.926223050262e+05
3.022879108166e+05
2.924779108166e+05
3.021408835995e+05
2.923308835995e+05
3.019909958294e+05
2.921809958294e+05
3.018379925100e+05
2.920279925100e+05
3.016815866534e+05
2.918715866534e+05
3.015214537565e+05
2.917114537565e+05
3.013572250319e+05
2.915472250319e+05
3.011884790371e+05
2.913784790371e+05
3.010147312256e+05
2.912047312256e+05
3.008354207685e+05
2.910254207685e+05
3.006498937429e+05
2.908398937429e+05
3.004573814165e+05
2.906473814165e+05
3.002569718022e+05
2.904469718022e+05
3.000475718182e+05
2.902375718182e+05
2.998278560634e+05
2.900178560634e+05
2.995961960967e+05
2.897861960967e+05
2.993505605785e+05
2.895405605785e+05
2.990883705797e+05
2.892783705797e+05
2.988062835144e+05
2.889962835144e+05
2.984998588259e+05
2.886898588259e+05
2.981630182208e+05
2.883530182208e+05
2.977871277091e+05
2.879771277091e+05
2.973593316440e+05
2.875493316440e+05
2.968592649425e+05
2.870492649425e+05
2.962517907996e+05
2.864417907996e+05
3.158200000000e+05
3.157073434826e+05
3.155942652913e+05
3.154807423810e+05
3.153667502655e+05
3.152522629068e+05
3.151372525960e+05
3.150216898214e+05
3.149055431241e+05
3.147887789388e+05
3.146713614183e+05
3.145532522395e+05
3.144344103888e+05
3.143147919235e+05
3.141943497064e+05
3.140730331099e+05
3.139507876856e+05
3.138275547931e+05
3.137032711833e+05
3.135778685289e+05
3.134512728928e+05
3.133234041260e+05
3.131941751818e+05
3.130634913331e+05
3.129312492754e+05
3.127973360937e+05
3.126616280708e+05
3.125239893027e+05
3.123842700856e+05
3.122423050262e+05
3.120979108166e+05
3.119508835995e+05
3.118009958294e+05
3.116479925100e+05
3.114915866534e+05
3.113314537565e+05
3.111672250319e+05
3.109984790371e+05
3.108247312256e+05
3.106454207685e+05
3.104598937429e+05
3.102673814165e+05
3.100669718022e+05
3.098575718181e+05
3.096378560634e+05
3.094061960967e+05
3.091605605785e+05
3.088983705797e+05
3.086162835144e+05
3.083098588259e+05
3.079730182207e+05
3.075971277091e+05
3.071693316440e+05
3.066692649424e+05
3.060617907995e+05
3.256300000000e+05
3.255173434826e+05
3.254042652913e+05
3.252907423810e+05
3.251767502655e+05
3.250622629068e+05
3.249472525960e+05
3.248316898214e+05
3.247155431241e+05
3.245987789388e+05
3.244813614183e+05
3.243632522395e+05
3.242444103888e+05
3.241247919235e+05
3.240043497064e+05
3.238830331099e+05
3.237607876856e+05
3.236375547931e+05
3.235132711833e+05
3.233878685289e+05
3.232612728928e+05
3.231334041260e+05
3.230041751818e+05
3.228734913331e+05
3.227412492754e+05
3.226073360937e+05
3.224716280708e+05
3.223339893027e+05
3.221942700856e+05
3.220523050262e+05
3.219079108166e+05
3.217608835995e+05
3.216109958294e+05
3.214579925100e+05
3.213015866534e+05
3.211414537565e+05
3.209772250319e+05
3.208084790371e+05
3.206347312256e+05
3.204554207684e+05
3.202698937429e+05
3.200773814165e+05
3.198769718022e+05
3.196675718181e+05
3.194478560634e+05
3.192161960966e+05
3.189705605785e+05
3.187083705797e+05
3.184262835143e+05
3.181198588258e+05
3.177830182207e+05
3.174071277091e+05
3.169793316440e+05
3.164792649424e+05
3.158717907995e+05
3.354400000000e+05
3.353273434826e+05
3.352142652913e+05
3.351007423810e+05
3.349867502655e+05
3.348722629068e+05
3.347572525960e+05
3.346416898214e+05
3.345255431241e+05
3.344087789388e+05
3.342913614183e+05
3.341732522395e+05
3.340544103888e+05
3.339347919235e+05
3.338143497064e+05
3.336930331099e+05
3.335707876856e+05
3.334475547931e+05
3.333232711833e+05
3.331978685289e+05
3.330712728928e+05
3.329434041260e+05
3.328141751818e+05
3.326834913331e+05
3.325512492754e+05
3.324173360937e+05
3.322816280708e+05
3.321439893027e+05
3.320042700856e+05
3.318623050262e+05
3.317179108166e+05
3.315708835995e+05
3.314209958294e+05
3.312679925100e+05
3.311115866534e+05
3.309514537565e+05
3.307872250319e+05
3.306184790371e+05
3.304447312256e+05
3.302654207684e+05
3.300798937429e+05
3.298873814165e+05
3.296869718022e+05
3.294775718181e+05
3.292578560634e+05
3.290261960966e+05
3.287805605785e+05
3.285183705797e+05
3.282362835143e+05
3.279298588258e+05
3.275930182207e+05
3.272171277091e+05
3.267893316440e+05
3.262892649424e+05
3.256817907995e+05
3.452500000000e+05
3.451373434826e+05
3.450242652913e+05
3.449107423810e+05
3.447967502655e+05
3.446822629068e+05
3.445672525960e+05
3.444516898214e+05
3.443355431241e+05
3.442187789388e+05
3.441013614183e+05
3.439832522395e+05
3.438644103888e+05
3.437447919235e+05
3.436243497064e+05
3.435030331099e+05
3.433807876856e+05
3.432575547931e+05
3.431332711833e+05
3.430078685289e+05
3.428812728928e+05
3.427534041260e+05
3.426241751818e+05
3.424934913331e+05
3.423612492754e+05
3.422273360937e+05
3.420916280708e+05
3.419539893027e+05
3.418142700856e+05
3.416723050262e+05
3.415279108166e+05
3.413808835995e+05
3.412309958294e+05
3.410779925100e+05
3.409215866534e+05
3.407614537565e+05
3.405972250319e+05
3.404284790371e+05
3.402547312256e+05
3.400754207684e+05
3.398898937429e+05
3.396973814165e+05
3.394969718022e+05
3.392875718181e+05
3.390678560634e+05
3.388361960966e+05
3.385905605785e+05
3.383283705797e+05
3.380462835143e+05
3.377398588258e+05
3.374030182207e+05
3.370271277091e+05
3.365993316440e+05
3.360992649424e+05
3.354917907995e+05
3.550600000000e+05
3.549473434826e+05
3.548342652913e+05
3.547207423810e+05
3.546067502655e+05
3.544922629068e+05
3.543772525960e+05
3.542616898214e+05
3.541455431241e+05
3.540287789388e+05
3.539113614183e+05
3.537932522395e+05
3.536744103888e+05
3.535547919235e+05
3.534343497064e+05
3.533130331099e+05
3.531907876856e+05
3.530675547931e+05
3.529432711833e+05
3.528178685289e+05
3.526912728928e+05
3.525634041260e+05
3.524341751818e+05
3.523034913331e+05
3.521712492754e+05
3.520373360937e+05
3.519016280708e+05
3.517639893027e+05
3.516242700856e+05
3.514823050262e+05
3.513379108166e+05
3.511908835995e+05
3.510409958294e+05
3.508879925100e+05
3.507315866534e+05
3.505714537565e+05
3.504072250319e+05
3.502384790371e+05
3.500647312256e+05
3.498854207684e+05
3.496998937429e+05
3.495073814165e+05
3.493069718022e+05
3.490975718181e+05
3.488778560634e+05
3.486461960966e+05
3.484005605785e+05
3.481383705797e+05
3.478562835143e+05
3.475498588258e+05
3.472130182207e+05
3.468371277091e+05
3.464093316440e+05
3.459092649424e+05
3.453017907995e+05
3.648700000000e+05
3.647573434826e+05
3.646442652913e+05
3.645307423810e+05
3.644167502655e+05
3.643022629068e+05
3.641872525960e+05
3.640716898214e+05
3.639555431241e+05
3.638387789388e+05
3.637213614183e+05
3.636032522395e+05
3.634844103888e+05
3.633647919235e+05
3.632443497064e+05
3.631230331099e+05
3.630007876856e+05
3.628775547931e+05
3.627532711833e+05
3.626278685289e+05
3.625012728928e+05
3.623734041260e+05
3.622441751818e+05
3.621134913331e+05
3.619812492754e+05
3.618473360937e+05
3.617116280708e+05
3.615739893027e+05
3.614342700856e+05
3.612923050262e+05
3.611479108166e+05
3.610008835995e+05
3.608509958294e+05
3.606979925100e+05
3.605415866534e+05
3.603814537565e+05
3.602172250319e+05
3.600484790371e+05
3.598747312256e+05
3.596954207684e+05
3.595098937429e+05
3.593173814165e+05
3.591169718022e+05
3.589075718181e+05
3.586878560634e+05
3.584561960966e+05
3.582105605785e+05
3.579483705797e+05
3.576662835143e+05
3.573598588258e+05
3.570230182207e+05
3.566471277091e+05
3.562193316440e+05
3.557192649424e+05
3.551117907995e+05
3.746800000000e+05
3.745673434826e+05
3.744542652913e+05
3.743407423810e+05
3.742267502655e+05
3.741122629068e+05
3.739972525960e+05
3.738816898214e+05
3.737655431241e+05
3.736487789388e+05
3.735313614183e+05
3.734132522395e+05
3.732944103888e+05
3.731747919235e+05
3.730543497064e+05
3.729330331099e+05
3.728107876856e+05
3.726875547931e+05
3.725632711833e+05
3.724378685289e+05
3.723112728928e+05
3.721834041260e+05
3.720541751818e+05
3.719234913331e+05
3.717912492754e+05
3.716573360937e+05
3.715216280708e+05
3.713839893027e+05
3.712442700856e+05
3.711023050262e+05
3.709579108166e+05
3.708108835995e+05
3.706609958294e+05
3.705079925100e+05
3.703515866534e+05
3.701914537565e+05
3.700272250319e+05
3.698584790371e+05
3.696847312256e+05
3.695054207684e+05
3.693198937429e+05
3.691273814165e+05
3.689269718022e+05
3.687175718181e+05
3.684978560634e+05
3.682661960966e+05
3.680205605785e+05
3.677583705797e+05
3.674762835143e+05
3.671698588258e+05
3.668330182207e+05
3.664571277090e+05
3.660293316440e+05
3.655292649424e+05
3.649217907995e+05
3.844900000000e+05
3.843773434826e+05
3.842642652913e+05
3.841507423810e+05
3.840367502655e+05
3.839222629068e+05
3.838072525960e+05
3.836916898214e+05
3.835755431241e+05
3.834587789388e+05
3.833413614183e+05
3.832232522395e+05
3.831044103888e+05
3.829847919235e+05
3.828643497064e+05
3.827430331099e+05
3.826207876856e+05
3.824975547931e+05
3.823732711833e+05
3.822478685289e+05
3.821212728928e+05
3.819934041260e+05
3.818641751818e+05
3.817334913331e+05
3.816012492754e+05
3.814673360937e+05
3.813316280708e+05
3.811939893027e+05
3.810542700856e+05
3.809123050262e+05
3.807679108166e+05
3.806208835995e+05
3.804709958294e+05
3.803179925100e+05
3.801615866534e+05
3.800014537565e+05
3.798372250319e+05
3.796684790371e+05
3.794947312256e+05
3.793154207684e+05
3.791298937429e+05
3.789373814165e+05
3.787369718022e+05
3.785275718181e+05
3.783078560634e+05
3.780761960966e+05
3.778305605785e+05
3.775683705796e+05
3.772862835143e+05
3.769798588258e+05
3.766430182207e+05
3.762671277090e+05
3.758393316439e+05
3.753392649424e+05
3.747317907995e+05
3.943000000000e+05
3.941873434826e+05
3.940742652913e+05
3.939607423810e+05
3.938467502655e+05
3.937322629068e+05
3.936172525960e+05
3.935016898214e+05
3.933855431241e+05
3.932687789388e+05
3.931513614183e+05
3.930332522395e+05
3.929144103888e+05
3.927947919235e+05
3.926743497064e+05
3.925530331099e+05
3.924307876856e+05
3.923075547931e+05
3.921832711833e+05
3.920578685289e+05
3.919312728928e+05
3.918034041260e+05
3.916741751818e+05
3.915434913331e+05
3.914112492754e+05
3.912773360937e+05
3.911416280708e+05
3.910039893027e+05
3.908642700856e+05
3.907223050262e+05
3.905779108166e+05
3.904308835995e+05
3.902809958294e+05
3.901279925100e+05
3.899715866534e+05
3.898114537565e+05
3.896472250319e+05
3.894784790371e+05
3.893047312256e+05
3.891254207684e+05
3.889398937429e+05
3.887473814165e+05
3.885469718022e+05
3.883375718181e+05
3.881178560634e+05
3.878861960966e+05
3.876405605785e+05
3.873783705796e+05
3.870962835143e+05
3.867898588258e+05
3.864530182207e+05
3.860771277090e+05
3.856493316439e+05
3.851492649424e+05
3.845417907995e+05
4.041100000000e+05
4.039973434826e+05
4.038842652913e+05
4.037707423810e+05
4.036567502655e+05
4.035422629068e+05
4.034272525960e+05
4.033116898214e+05
4.031955431241e+05
4.030787789388e+05
4.029613614183e+05
4.028432522395e+05
4.027244103888e+05
4.026047919235e+05
4.024843497064e+05
4.023630331099e+05
4.022407876856e+05
4.021175547931e+05
4.019932711833e+05
4.018678685289e+05
4.017412728928e+05
4.016134041260e+05
4.014841751818e+05
4.013534913331e+05
4.012212492754e+05
4.010873360937e+05
4.009516280708e+05
4.008139893027e+05
4.006742700856e+05
4.005323050262e+05
4.003879108166e+05
4.002408835995e+05
4.000909958294e+05
3.999379925100e+05
3.997815866534e+05
3.996214537565e+05
3.994572250319e+05
3.992884790371e+05
3.991147312256e+05
3.989354207684e+05
3.987498937429e+05
3.985573814165e+05
3.983569718022e+05
3.981475718181e+05
3.979278560634e+05
3.976961960966e+05
3.974505605785e+05
3.971883705796e+05
3.969062835143e+05
3.965998588258e+05
3.962630182207e+05
3.958871277090e+05
3.954593316439e+05
3.949592649424e+05
3.943517907995e+05
4.139200000000e+05
4.138073434826e+05
4.136942652913e+05
4.135807423810e+05
4.134667502655e+05
4.133522629068e+05
4.132372525960e+05
4.131216898214e+05
4.130055431241e+05
4.128887789388e+05
4.127713614183e+05
4.126532522395e+05
4.125344103888e+05
4.124147919235e+05
4.122943497064e+05
4.121730331099e+05
4.120507876856e+05
4.119275547931e+05
4.118032711833e+05
4.116778685289e+05
4.115512728928e+05
4.114234041260e+05
4.112941751818e+05
4.111634913331e+05
4.110312492754e+05
4.108973360937e+05
4.107616280708e+05
4.106239893027e+05
4.104842700856e+05
4.103423050262e+05
4.101979108166e+05
4.100508835995e+05
4.099009958294e+05
4.097479925100e+05
4.095915866534e+05
4.094314537565e+05
4.092672250319e+05
4.090984790371e+05
4.089247312256e+05
4.087454207684e+05
4.085598937429e+05
4.083673814165e+05
4.081669718022e+05
4.079575718181e+05
4.077378560634e+05
4.075061960966e+05
4.072605605785e+05
4.069983705797e+05
4.067162835143e+05
4.064098588258e+05
4.060730182207e+05
4.056971277090e+05
4.052693316440e+05
4.047692649424e+05
4.041617907995e+05
4.237300000000e+05
4.236173434826e+05
4.235042652913e+05
4.233907423810e+05
4.232767502655e+05
4.231622629068e+05
4.230472525960e+05
4.229316898214e+05
4.228155431241e+05
4.226987789388e+05
4.225813614183e+05
4.224632522395e+05
4.223444103888e+05
4.222247919235e+05
4.221043497064e+05
4.219830331099e+05
4.218607876856e+05
4.217375547931e+05
4.216132711833e+05
4.214878685289e+05
4.213612728928e+05
4.212334041260e+05
4.211041751818e+05
4.209734913331e+05
4.208412492754e+05
4.207073360937e+05
4.205716280708e+05
4.204339893027e+05
4.202942700856e+05
4.201523050262e+05
4.200079108166e+05
4.198608835995e+05
4.197109958294e+05
4.195579925100e+05
4.194015866534e+05
4.192414537565e+05
4.190772250319e+05
4.189084790371e+05
4.187347312256e+05
4.185554207684e+05
4.183698937429e+05
4.181773814165e+05
4.179769718022e+05
4.177675718181e+05
4.175478560634e+05
4.173161960966e+05
4.170705605785e+05
4.168083705797e+05
4.165262835143e+05
4.162198588258e+05
4.158830182207e+05
4.155071277091e+05
4.150793316440e+05
4.145792649424e+05
4.139717907995e+05
4.335400000000e+05
4.334273434826e+05
4.333142652913e+05
4.332007423810e+05
4.330867502655e+05
4.329722629068e+05
4.328572525960e+05
4.327416898214e+05
4.326255431241e+05
4.325087789388e+05
4.323913614183e+05
4.322732522395e+05
4.321544103888e+05
4.320347919235e+05
4.319143497064e+05
4.317930331099e+05
4.316707876856e+05
4.315475547931e+05
4.314232711833e+05
4.312978685289e+05
4.311712728928e+05
4.310434041260e+05
4.309141751818e+05
4.307834913331e+05
4.306512492754e+05
4.305173360937e+05
4.303816280708e+05
4.302439893027e+05
4.301042700856e+05
4.299623050262e+05
4.298179108166e+05
4.296708835995e+05
4.295209958294e+05
4.293679925100e+05
4.292115866534e+05
4.290514537565e+05
4.288872250319e+05
4.287184790371e+05
4.285447312256e+05
4.283654207684e+05
4.281798937429e+05
4.279873814165e+05
4.277869718022e+05
4.275775718181e+05
4.273578560634e+05
4.271261960966e+05
4.268805605785e+05
4.266183705797e+05
4.263362835143e+05
4.260298588258e+05
4.256930182207e+05
4.253171277091e+05
4.248893316440e+05
4.243892649424e+05
4.237817907995e+05
4.433500000000e+05
4.432373434826e+05
4.431242652913e+05
4.430107423810e+05
4.428967502655e+05
4.427822629068e+05
4.426672525960e+05
4.425516898214e+05
4.424355431241e+05
4.423187789388e+05
4.422013614183e+05
4.420832522395e+05
4.419644103888e+05
4.418447919235e+05
4.417243497064e+05
4.416030331099e+05
4.414807876856e+05
4.413575547931e+05
4.412332711833e+05
4.411078685289e+05
4.409812728928e+05
4.408534041260e+05
4.407241751818e+05
4.405934913331e+05
4.404612492754e+05
4.403273360937e+05
4.401916280708e+05
4.400539893027e+05
4.399142700856e+05
4.397723050262e+05
4.396279108166e+05
4.394808835995e+05
4.393309958294e+05
4.391779925100e+05
4.390215866534e+05
4.388614537565e+05
4.386972250319e+05
4.385284790371e+05
4.383547312256e+05
4.381754207684e+05
4.379898937429e+05
4.377973814165e+05
4.375969718022e+05
4.373875718181e+05
4.371678560634e+05
4.369361960966e+05
4.366905605785e+05
4.364283705797e+05
4.361462835143e+05
4.358398588258e+05
4.355030182207e+05
4.351271277091e+05
4.346993316440e+05
4.341992649424e+05
4.335917907995e+05
4.531600000000e+05
4.530473434826e+05
4.529342652913e+05
4.528207423810e+05
4.527067502655e+05
4.525922629068e+05
4.524772525960e+05
4.523616898214e+05
4.522455431241e+05
4.521287789388e+05
4.520113614183e+05
4.518932522395e+05
4.517744103888e+05
4.516547919235e+05
4.515343497064e+05
4.514130331099e+05
4.512907876856e+05
4.511675547931e+05
4.510432711833e+05
4.509178685289e+05
4.507912728928e+05
4.506634041260e+05
4.505341751818e+05
4.504034913331e+05
4.502712492754e+05
4.501373360937e+05
4.500016280708e+05
4.498639893027e+05
4.497242700856e+05
4.495823050262e+05
4.494379108166e+05
4.492908835995e+05
4.491409958294e+05
4.489879925100e+05
4.488315866534e+05
4.486714537565e+05
4.485072250319e+05
4.483384790371e+05
4.481647312256e+05
4.479854207684e+05
4.477998937429e+05
4.476073814165e+05
4.474069718022e+05
4.471975718181e+05
4.469778560634e+05
4.467461960966e+05
4.465005605785e+05
4.462383705797e+05
4.459562835143e+05
4.456498588258e+05
4.453130182207e+05
4.449371277091e+05
4.445093316440e+05
4.440092649424e+05
4.434017907995e+05
4.629700000000e+05
4.628573434826e+05
4.627442652913e+05
4.626307423810e+05
4.625167502655e+05
4.624022629068e+05
4.622872525960e+05
4.621716898214e+05
4.620555431241e+05
4.619387789388e+05
4.618213614183e+05
4.617032522395e+05
4.615844103888e+05
4.614647919235e+05
4.613443497064e+05
4.612230331099e+05
4.611007876856e+05
4.609775547931e+05
4.608532711833e+05
4.607278685289e+05
4.606012728928e+05
4.604734041260e+05
4.603441751818e+05
4.602134913331e+05
4.600812492754e+05
4.599473360937e+05
4.598116280708e+05
4.596739893027e+05
4.595342700856e+05
4.593923050262e+05