# vtk DataFile Version 3.0
Unstructured Grid from OpenGeoSys
ASCII
DATASET UNSTRUCTURED_GRID
FIELD TimesAndCycles 2
TIME 1 1 double
8.640000000000e+04
CYLCE 1 1 long
1
POINTS 2478 double
5.000000000000e-02 0.000000000000e+00 -2.000000000000e+01
5.000000000000e-02 0.000000000000e+00 -2.100000000000e+01
1.000000000000e-01 0.000000000000e+00 -2.100000000000e+01
1.000000000000e-01 0.000000000000e+00 -2.000000000000e+01
5.000000000000e-02 0.000000000000e+00 -2.200000000000e+01
1.000000000000e-01 0.000000000000e+00 -2.200000000000e+01
5.000000000000e-02 0.000000000000e+00 -2.300000000000e+01
1.000000000000e-01 0.000000000000e+00 -2.300000000000e+01
5.000000000000e-02 0.000000000000e+00 -2.400000000000e+01
1.000000000000e-01 0.000000000000e+00 -2.400000000000e+01
5.000000000000e-02 0.000000000000e+00 -2.500000000000e+01
1.000000000000e-01 0.000000000000e+00 -2.500000000000e+01
5.000000000000e-02 0.000000000000e+00 -2.600000000000e+01
1.000000000000e-01 0.000000000000e+00 -2.600000000000e+01
5.000000000000e-02 0.000000000000e+00 -2.700000000000e+01
1.000000000000e-01 0.000000000000e+00 -2.700000000000e+01
5.000000000000e-02 0.000000000000e+00 -2.800000000000e+01
1.000000000000e-01 0.000000000000e+00 -2.800000000000e+01
5.000000000000e-02 0.000000000000e+00 -2.900000000000e+01
1.000000000000e-01 0.000000000000e+00 -2.900000000000e+01
5.000000000000e-02 0.000000000000e+00 -3.000000000000e+01
1.000000000000e-01 0.000000000000e+00 -3.000000000000e+01
5.000000000000e-02 0.000000000000e+00 -3.100000000000e+01
1.000000000000e-01 0.000000000000e+00 -3.100000000000e+01
5.000000000000e-02 0.000000000000e+00 -3.200000000000e+01
1.000000000000e-01 0.000000000000e+00 -3.200000000000e+01
5.000000000000e-02 0.000000000000e+00 -3.300000000000e+01
1.000000000000e-01 0.000000000000e+00 -3.300000000000e+01
5.000000000000e-02 0.000000000000e+00 -3.400000000000e+01
1.000000000000e-01 0.000000000000e+00 -3.400000000000e+01
5.000000000000e-02 0.000000000000e+00 -3.500000000000e+01
1.000000000000e-01 0.000000000000e+00 -3.500000000000e+01
5.000000000000e-02 0.000000000000e+00 -3.600000000000e+01
1.000000000000e-01 0.000000000000e+00 -3.600000000000e+01
5.000000000000e-02 0.000000000000e+00 -3.700000000000e+01
1.000000000000e-01 0.000000000000e+00 -3.700000000000e+01
5.000000000000e-02 0.000000000000e+00 -3.800000000000e+01
1.000000000000e-01 0.000000000000e+00 -3.800000000000e+01
5.000000000000e-02 0.000000000000e+00 -3.900000000000e+01
1.000000000000e-01 0.000000000000e+00 -3.900000000000e+01
5.000000000000e-02 0.000000000000e+00 -4.000000000000e+01
1.000000000000e-01 0.000000000000e+00 -4.000000000000e+01
2.000000000000e-01 0.000000000000e+00 -2.100000000000e+01
2.000000000000e-01 0.000000000000e+00 -2.000000000000e+01
2.000000000000e-01 0.000000000000e+00 -2.200000000000e+01
2.000000000000e-01 0.000000000000e+00 -2.300000000000e+01
2.000000000000e-01 0.000000000000e+00 -2.400000000000e+01
2.000000000000e-01 0.000000000000e+00 -2.500000000000e+01
2.000000000000e-01 0.000000000000e+00 -2.600000000000e+01
2.000000000000e-01 0.000000000000e+00 -2.700000000000e+01
2.000000000000e-01 0.000000000000e+00 -2.800000000000e+01
2.000000000000e-01 0.000000000000e+00 -2.900000000000e+01
2.000000000000e-01 0.000000000000e+00 -3.000000000000e+01
2.000000000000e-01 0.000000000000e+00 -3.100000000000e+01
2.000000000000e-01 0.000000000000e+00 -3.200000000000e+01
2.000000000000e-01 0.000000000000e+00 -3.300000000000e+01
2.000000000000e-01 0.000000000000e+00 -3.400000000000e+01
2.000000000000e-01 0.000000000000e+00 -3.500000000000e+01
2.000000000000e-01 0.000000000000e+00 -3.600000000000e+01
2.000000000000e-01 0.000000000000e+00 -3.700000000000e+01
2.000000000000e-01 0.000000000000e+00 -3.800000000000e+01
2.000000000000e-01 0.000000000000e+00 -3.900000000000e+01
2.000000000000e-01 0.000000000000e+00 -4.000000000000e+01
3.000000000000e-01 0.000000000000e+00 -2.100000000000e+01
3.000000000000e-01 0.000000000000e+00 -2.000000000000e+01
3.000000000000e-01 0.000000000000e+00 -2.200000000000e+01
3.000000000000e-01 0.000000000000e+00 -2.300000000000e+01
3.000000000000e-01 0.000000000000e+00 -2.400000000000e+01
3.000000000000e-01 0.000000000000e+00 -2.500000000000e+01
3.000000000000e-01 0.000000000000e+00 -2.600000000000e+01
3.000000000000e-01 0.000000000000e+00 -2.700000000000e+01
3.000000000000e-01 0.000000000000e+00 -2.800000000000e+01
3.000000000000e-01 0.000000000000e+00 -2.900000000000e+01
3.000000000000e-01 0.000000000000e+00 -3.000000000000e+01
3.000000000000e-01 0.000000000000e+00 -3.100000000000e+01
3.000000000000e-01 0.000000000000e+00 -3.200000000000e+01
3.000000000000e-01 0.000000000000e+00 -3.300000000000e+01
3.000000000000e-01 0.000000000000e+00 -3.400000000000e+01
3.000000000000e-01 0.000000000000e+00 -3.500000000000e+01
3.000000000000e-01 0.000000000000e+00 -3.600000000000e+01
3.000000000000e-01 0.000000000000e+00 -3.700000000000e+01
3.000000000000e-01 0.000000000000e+00 -3.800000000000e+01
3.000000000000e-01 0.000000000000e+00 -3.900000000000e+01
3.000000000000e-01 0.000000000000e+00 -4.000000000000e+01
3.017908699421e+01 0.000000000000e+00 -2.100000000000e+01
3.017908699421e+01 0.000000000000e+00 -2.000000000000e+01
2.873036212330e+01 0.000000000000e+00 -2.100000000000e+01
2.873036212330e+01 0.000000000000e+00 -2.000000000000e+01
2.734614430377e+01 0.000000000000e+00 -2.100000000000e+01
2.734614430377e+01 0.000000000000e+00 -2.000000000000e+01
2.602356124444e+01 0.000000000000e+00 -2.100000000000e+01
2.602356124444e+01 0.000000000000e+00 -2.000000000000e+01
2.475986854800e+01 0.000000000000e+00 -2.100000000000e+01
2.475986854800e+01 0.000000000000e+00 -2.000000000000e+01
2.355244401630e+01 0.000000000000e+00 -2.100000000000e+01
2.355244401630e+01 0.000000000000e+00 -2.000000000000e+01
2.239878220923e+01 0.000000000000e+00 -2.100000000000e+01
2.239878220923e+01 0.000000000000e+00 -2.000000000000e+01
2.129648924588e+01 0.000000000000e+00 -2.100000000000e+01
2.129648924588e+01 0.000000000000e+00 -2.000000000000e+01
2.024327783711e+01 0.000000000000e+00 -2.100000000000e+01
2.024327783711e+01 0.000000000000e+00 -2.000000000000e+01
1.923696253941e+01 0.000000000000e+00 -2.100000000000e+01
1.923696253941e+01 0.000000000000e+00 -2.000000000000e+01
1.827545522004e+01 0.000000000000e+00 -2.100000000000e+01
1.827545522004e+01 0.000000000000e+00 -2.000000000000e+01
1.735676072407e+01 0.000000000000e+00 -2.100000000000e+01
1.735676072407e+01 0.000000000000e+00 -2.000000000000e+01
1.647897273441e+01 0.000000000000e+00 -2.100000000000e+01
1.647897273441e+01 0.000000000000e+00 -2.000000000000e+01
1.564026981610e+01 0.000000000000e+00 -2.100000000000e+01
1.564026981610e+01 0.000000000000e+00 -2.000000000000e+01
1.483891163683e+01 0.000000000000e+00 -2.100000000000e+01
1.483891163683e+01 0.000000000000e+00 -2.000000000000e+01
1.407323535568e+01 0.000000000000e+00 -2.100000000000e+01
1.407323535568e+01 0.000000000000e+00 -2.000000000000e+01
1.334165217268e+01 0.000000000000e+00 -2.100000000000e+01
1.334165217268e+01 0.000000000000e+00 -2.000000000000e+01
1.264264403200e+01 0.000000000000e+00 -2.100000000000e+01
1.264264403200e+01 0.000000000000e+00 -2.000000000000e+01
1.197476047194e+01 0.000000000000e+00 -2.100000000000e+01
1.197476047194e+01 0.000000000000e+00 -2.000000000000e+01
1.133661561520e+01 0.000000000000e+00 -2.100000000000e+01
1.133661561520e+01 0.000000000000e+00 -2.000000000000e+01
1.072688529313e+01 0.000000000000e+00 -2.100000000000e+01
1.072688529313e+01 0.000000000000e+00 -2.000000000000e+01
1.014430429803e+01 0.000000000000e+00 -2.100000000000e+01
1.014430429803e+01 0.000000000000e+00 -2.000000000000e+01
9.587663757842e+00 0.000000000000e+00 -2.100000000000e+01
9.587663757842e+00 0.000000000000e+00 -2.000000000000e+01
9.055808627670e+00 0.000000000000e+00 -2.100000000000e+01
9.055808627670e+00 0.000000000000e+00 -2.000000000000e+01
8.547635293055e+00 0.000000000000e+00 -2.100000000000e+01
8.547635293055e+00 0.000000000000e+00 -2.000000000000e+01
8.062089279933e+00 0.000000000000e+00 -2.100000000000e+01
8.062089279933e+00 0.000000000000e+00 -2.000000000000e+01
7.598163066571e+00 0.000000000000e+00 -2.100000000000e+01
7.598163066571e+00 0.000000000000e+00 -2.000000000000e+01
7.154893992937e+00 0.000000000000e+00 -2.100000000000e+01
7.154893992937e+00 0.000000000000e+00 -2.000000000000e+01
6.731362263145e+00 0.000000000000e+00 -2.100000000000e+01
6.731362263145e+00 0.000000000000e+00 -2.000000000000e+01
6.326689036858e+00 0.000000000000e+00 -2.100000000000e+01
6.326689036858e+00 0.000000000000e+00 -2.000000000000e+01
5.940034605670e+00 0.000000000000e+00 -2.100000000000e+01
5.940034605670e+00 0.000000000000e+00 -2.000000000000e+01
5.570596650682e+00 0.000000000000e+00 -2.100000000000e+01
5.570596650682e+00 0.000000000000e+00 -2.000000000000e+01
5.217608577672e+00 0.000000000000e+00 -2.100000000000e+01
5.217608577672e+00 0.000000000000e+00 -2.000000000000e+01
4.880337926390e+00 0.000000000000e+00 -2.100000000000e+01
4.880337926390e+00 0.000000000000e+00 -2.000000000000e+01
4.558084850681e+00 0.000000000000e+00 -2.100000000000e+01
4.558084850681e+00 0.000000000000e+00 -2.000000000000e+01
4.250180666284e+00 0.000000000000e+00 -2.100000000000e+01
4.250180666284e+00 0.000000000000e+00 -2.000000000000e+01
3.955986463295e+00 0.000000000000e+00 -2.100000000000e+01
3.955986463295e+00 0.000000000000e+00 -2.000000000000e+01
3.674891780407e+00 0.000000000000e+00 -2.100000000000e+01
3.674891780407e+00 0.000000000000e+00 -2.000000000000e+01
3.406313338193e+00 0.000000000000e+00 -2.100000000000e+01
3.406313338193e+00 0.000000000000e+00 -2.000000000000e+01
3.149693828776e+00 0.000000000000e+00 -2.100000000000e+01
3.149693828776e+00 0.000000000000e+00 -2.000000000000e+01
2.904500759404e+00 0.000000000000e+00 -2.100000000000e+01
2.904500759404e+00 0.000000000000e+00 -2.000000000000e+01
2.670225347514e+00 0.000000000000e+00 -2.100000000000e+01
2.670225347514e+00 0.000000000000e+00 -2.000000000000e+01
2.446381464989e+00 0.000000000000e+00 -2.100000000000e+01
[...]
POINT_DATA 2478
SCALARS PRESSURE1 double 1
LOOKUP_TABLE default
3.007591005884e+05
3.105691005884e+05
3.100893824258e+05
3.002793824258e+05
3.203791005884e+05
3.198993824258e+05
3.301891005884e+05
3.297093824258e+05
3.399991005884e+05
3.395193824258e+05
3.498091005884e+05
3.493293824258e+05
3.596191005884e+05
3.591393824258e+05
3.694291005884e+05
3.689493824258e+05
3.792391005884e+05
3.787593824258e+05
3.890491005884e+05
3.885693824258e+05
3.988591005884e+05
3.983793824258e+05
4.086691005884e+05
4.081893824258e+05
4.184791005884e+05
4.179993824259e+05
4.282891005884e+05
4.278093824259e+05
4.380991005884e+05
4.376193824259e+05
4.479091005884e+05
4.474293824259e+05
4.577191005884e+05
4.572393824259e+05
4.675291005884e+05
4.670493824259e+05
4.773391005884e+05
4.768593824259e+05
4.871491005884e+05
4.866693824259e+05
4.969591005884e+05
4.964793824259e+05
3.096096642633e+05
2.997996642633e+05
3.194196642633e+05
3.292296642633e+05
3.390396642633e+05
3.488496642633e+05
3.586596642633e+05
3.684696642633e+05
3.782796642633e+05
3.880896642633e+05
3.978996642633e+05
4.077096642633e+05
4.175196642633e+05
4.273296642633e+05
4.371396642633e+05
4.469496642633e+05
4.567596642633e+05
4.665696642633e+05
4.763796642633e+05
4.861896642633e+05
4.959996642633e+05
3.093218333657e+05
2.995118333657e+05
3.191318333657e+05
3.289418333657e+05
3.387518333657e+05
3.485618333657e+05
3.583718333657e+05
3.681818333657e+05
3.779918333657e+05
3.878018333657e+05
3.976118333657e+05
4.074218333657e+05
4.172318333657e+05
4.270418333658e+05
4.368518333658e+05
4.466618333658e+05
4.564718333658e+05
4.662818333658e+05
4.760918333658e+05
4.859018333658e+05
4.957118333658e+05
3.060100000000e+05
2.962000000000e+05
3.060453922661e+05
2.962353922661e+05
3.060809170057e+05
2.962709170057e+05
3.061165814585e+05
2.963065814585e+05
3.061523933173e+05
2.963423933173e+05
3.061883607620e+05
2.963783607620e+05
3.062244924978e+05
2.964144924978e+05
3.062607977961e+05
2.964507977961e+05
3.062972865401e+05
2.964872865401e+05
3.063339692746e+05
2.965239692746e+05
3.063708572615e+05
2.965608572615e+05
3.064079625403e+05
2.965979625403e+05
3.064452979959e+05
2.966352979959e+05
3.064828774334e+05
2.966728774334e+05
3.065207156615e+05
2.967107156615e+05
3.065588285854e+05
2.967488285854e+05
3.065972333105e+05
2.967872333105e+05
3.066359482595e+05
2.968259482595e+05
3.066749933027e+05
2.968649933027e+05
3.067143899060e+05
2.969043899060e+05
3.067541612973e+05
2.969441612973e+05
3.067943326565e+05
2.969843326565e+05
3.068349313301e+05
2.970249313301e+05
3.068759870778e+05
2.970659870778e+05
3.069175323537e+05
2.971075323537e+05
3.069596026313e+05
2.971496026313e+05
3.070022367778e+05
2.971922367778e+05
3.070454774888e+05
2.972354774888e+05
3.070893717954e+05
2.972793717954e+05
3.071339716576e+05
2.973239716576e+05
3.071793346638e+05
2.973693346638e+05
3.072255248578e+05
2.974155248578e+05
3.072726137255e+05
2.974626137255e+05
3.073206813768e+05
2.975106813768e+05
3.073698179721e+05
2.975598179721e+05
3.074201254575e+05
2.976101254575e+05
3.074717196916e+05
2.976617196916e+05
3.075247330750e+05
2.977147330750e+05
3.075793178334e+05
2.977693178334e+05
3.076356501572e+05
2.978256501572e+05
3.076939354833e+05
2.978839354833e+05
3.077544153175e+05
2.979444153175e+05
3.078173761702e+05
2.980073761702e+05
3.078831614451e+05
2.980731614451e+05
3.079521875311e+05
2.981421875311e+05
3.080249660208e+05
2.982149660208e+05
3.081021350815e+05
2.982921350815e+05
3.081845049117e+05
2.983745049117e+05
3.082731256211e+05
2.984631256211e+05
3.083693922586e+05
2.985593922586e+05
3.084752143860e+05
2.986652143860e+05
3.085933044648e+05
2.987833044648e+05
3.087277012359e+05
2.989177012359e+05
3.088848026108e+05
2.990748026108e+05
3.090756471977e+05
2.992656471977e+05
3.158200000000e+05
3.158553922661e+05
3.158909170057e+05
3.159265814585e+05
3.159623933173e+05
3.159983607620e+05
3.160344924978e+05
3.160707977961e+05
3.161072865401e+05
3.161439692746e+05
3.161808572615e+05
3.162179625403e+05
3.162552979959e+05
3.162928774334e+05
3.163307156615e+05
3.163688285854e+05
3.164072333105e+05
3.164459482595e+05
3.164849933027e+05
3.165243899060e+05
3.165641612973e+05
3.166043326565e+05
3.166449313301e+05
3.166859870778e+05
3.167275323537e+05
3.167696026313e+05
3.168122367778e+05
3.168554774888e+05
3.168993717954e+05
3.169439716576e+05
3.169893346638e+05
3.170355248578e+05
3.170826137255e+05
3.171306813768e+05
3.171798179721e+05
3.172301254575e+05
3.172817196916e+05
3.173347330750e+05
3.173893178334e+05
3.174456501572e+05
3.175039354833e+05
3.175644153175e+05
3.176273761702e+05
3.176931614451e+05
3.177621875311e+05
3.178349660208e+05
3.179121350815e+05
3.179945049117e+05
3.180831256211e+05
3.181793922586e+05
3.182852143860e+05
3.184033044648e+05
3.185377012359e+05
3.186948026108e+05
3.188856471977e+05
3.256300000000e+05
3.256653922661e+05
3.257009170057e+05
3.257365814585e+05
3.257723933173e+05
3.258083607620e+05
3.258444924978e+05
3.258807977961e+05
3.259172865401e+05
3.259539692746e+05
3.259908572615e+05
3.260279625403e+05
3.260652979959e+05
3.261028774334e+05
3.261407156615e+05
3.261788285854e+05
3.262172333105e+05
3.262559482595e+05
3.262949933027e+05
3.263343899060e+05
3.263741612973e+05
3.264143326565e+05
3.264549313301e+05
3.264959870778e+05
3.265375323537e+05
3.265796026313e+05
3.266222367778e+05
3.266654774888e+05
3.267093717954e+05
3.267539716577e+05
3.267993346638e+05
3.268455248578e+05
3.268926137256e+05
3.269406813768e+05
3.269898179721e+05
3.270401254575e+05
3.270917196916e+05
3.271447330750e+05
3.271993178334e+05
3.272556501572e+05
3.273139354833e+05
3.273744153175e+05
3.274373761702e+05
3.275031614451e+05
3.275721875311e+05
3.276449660208e+05
3.277221350815e+05
3.278045049117e+05
3.278931256211e+05
3.279893922586e+05
3.280952143860e+05
3.282133044648e+05
3.283477012359e+05
3.285048026108e+05
3.286956471977e+05
3.354400000000e+05
3.354753922661e+05
3.355109170057e+05
3.355465814585e+05
3.355823933173e+05
3.356183607620e+05
3.356544924978e+05
3.356907977961e+05
3.357272865401e+05
3.357639692746e+05
3.358008572615e+05
3.358379625403e+05
3.358752979959e+05
3.359128774334e+05
3.359507156615e+05
3.359888285854e+05
3.360272333105e+05
3.360659482595e+05
3.361049933027e+05
3.361443899060e+05
3.361841612973e+05
3.362243326565e+05
3.362649313301e+05
3.363059870778e+05
3.363475323537e+05
3.363896026313e+05
3.364322367778e+05
3.364754774888e+05
3.365193717954e+05
3.365639716577e+05
3.366093346638e+05
3.366555248578e+05
3.367026137256e+05
3.367506813768e+05
3.367998179721e+05
3.368501254575e+05
3.369017196916e+05
3.369547330750e+05
3.370093178334e+05
3.370656501572e+05
3.371239354833e+05
3.371844153175e+05
3.372473761702e+05
3.373131614451e+05
3.373821875311e+05
3.374549660208e+05
3.375321350815e+05
3.376145049117e+05
3.377031256211e+05
3.377993922586e+05
3.379052143860e+05
3.380233044648e+05
3.381577012359e+05
3.383148026108e+05
3.385056471977e+05
3.452500000000e+05
3.452853922661e+05
3.453209170057e+05
3.453565814585e+05
3.453923933173e+05
3.454283607620e+05
3.454644924978e+05
3.455007977961e+05
3.455372865401e+05
3.455739692746e+05
3.456108572615e+05
3.456479625403e+05
3.456852979959e+05
3.457228774334e+05
3.457607156615e+05
3.457988285854e+05
3.458372333105e+05
3.458759482595e+05
3.459149933027e+05
3.459543899060e+05
3.459941612973e+05
3.460343326565e+05
3.460749313301e+05
3.461159870778e+05
3.461575323537e+05
3.461996026313e+05
3.462422367778e+05
3.462854774888e+05
3.463293717954e+05
3.463739716577e+05
3.464193346638e+05
3.464655248578e+05
3.465126137256e+05
3.465606813768e+05
3.466098179721e+05
3.466601254575e+05
3.467117196916e+05
3.467647330750e+05
3.468193178334e+05
3.468756501572e+05
3.469339354833e+05
3.469944153175e+05
3.470573761702e+05
3.471231614451e+05
3.471921875311e+05
3.472649660208e+05
3.473421350815e+05
3.474245049117e+05
3.475131256211e+05
3.476093922586e+05
3.477152143860e+05
3.478333044648e+05
3.479677012359e+05
3.481248026108e+05
3.483156471977e+05
3.550600000000e+05
3.550953922661e+05
3.551309170057e+05
3.551665814585e+05
3.552023933173e+05
3.552383607620e+05
3.552744924978e+05
3.553107977961e+05
3.553472865401e+05
3.553839692746e+05
3.554208572615e+05
3.554579625403e+05
3.554952979959e+05
3.555328774334e+05
3.555707156615e+05
3.556088285854e+05
3.556472333105e+05
3.556859482595e+05
3.557249933027e+05
3.557643899060e+05
3.558041612973e+05
3.558443326565e+05
3.558849313301e+05
3.559259870778e+05
3.559675323537e+05
3.560096026313e+05
3.560522367778e+05
3.560954774888e+05
3.561393717954e+05
3.561839716577e+05
3.562293346638e+05
3.562755248578e+05
3.563226137256e+05
3.563706813769e+05
3.564198179721e+05
3.564701254575e+05
3.565217196916e+05
3.565747330750e+05
3.566293178334e+05
3.566856501572e+05
3.567439354833e+05
3.568044153175e+05
3.568673761702e+05
3.569331614451e+05
3.570021875311e+05
3.570749660208e+05
3.571521350815e+05
3.572345049117e+05
3.573231256211e+05
3.574193922586e+05
3.575252143860e+05
3.576433044648e+05
3.577777012359e+05
3.579348026108e+05
3.581256471977e+05
3.648700000000e+05
3.649053922661e+05
3.649409170057e+05
3.649765814585e+05
3.650123933173e+05
3.650483607620e+05
3.650844924978e+05
3.651207977961e+05
3.651572865401e+05
3.651939692746e+05
3.652308572615e+05
3.652679625403e+05
3.653052979959e+05
3.653428774334e+05
3.653807156615e+05
3.654188285854e+05
3.654572333105e+05
3.654959482595e+05
3.655349933027e+05
3.655743899060e+05
3.656141612973e+05
3.656543326565e+05
3.656949313302e+05
3.657359870778e+05
3.657775323537e+05
3.658196026313e+05
3.658622367778e+05
3.659054774888e+05
3.659493717954e+05
3.659939716577e+05
3.660393346638e+05
3.660855248578e+05
3.661326137256e+05
3.661806813769e+05
3.662298179721e+05
3.662801254575e+05
3.663317196916e+05
3.663847330750e+05
3.664393178334e+05
3.664956501572e+05
3.665539354833e+05
3.666144153175e+05
3.666773761702e+05
3.667431614451e+05
3.668121875311e+05
3.668849660208e+05
3.669621350815e+05
3.670445049117e+05
3.671331256211e+05
3.672293922586e+05
3.673352143860e+05
3.674533044648e+05
3.675877012359e+05
3.677448026108e+05
3.679356471977e+05
3.746800000000e+05
3.747153922661e+05
3.747509170057e+05
3.747865814585e+05
3.748223933173e+05
3.748583607620e+05
3.748944924978e+05
3.749307977961e+05
3.749672865401e+05
3.750039692746e+05
3.750408572615e+05
3.750779625403e+05
3.751152979959e+05
3.751528774334e+05
3.751907156615e+05
3.752288285854e+05
3.752672333105e+05
3.753059482595e+05
3.753449933027e+05
3.753843899060e+05
3.754241612973e+05
3.754643326565e+05
3.755049313302e+05
3.755459870778e+05
3.755875323537e+05
3.756296026313e+05
3.756722367778e+05
3.757154774888e+05
3.757593717954e+05
3.758039716577e+05
3.758493346638e+05
3.758955248578e+05
3.759426137256e+05
3.759906813769e+05
3.760398179721e+05
3.760901254575e+05
3.761417196916e+05
3.761947330750e+05
3.762493178334e+05
3.763056501572e+05
3.763639354833e+05
3.764244153175e+05
3.764873761702e+05
3.765531614451e+05
3.766221875311e+05
3.766949660208e+05
3.767721350815e+05
3.768545049117e+05
3.769431256211e+05
3.770393922586e+05
3.771452143860e+05
3.772633044648e+05
3.773977012359e+05
3.775548026108e+05
3.777456471977e+05
3.844900000000e+05
3.845253922661e+05
3.845609170057e+05
3.845965814585e+05
3.846323933173e+05
3.846683607620e+05
3.847044924978e+05
3.847407977961e+05
3.847772865401e+05
3.848139692746e+05
3.848508572615e+05
3.848879625403e+05
3.849252979959e+05
3.849628774334e+05
3.850007156615e+05
3.850388285854e+05
3.850772333105e+05
3.851159482595e+05
3.851549933027e+05
3.851943899060e+05
3.852341612973e+05
3.852743326565e+05
3.853149313302e+05
3.853559870778e+05
3.853975323537e+05
3.854396026313e+05
3.854822367778e+05
3.855254774888e+05
3.855693717954e+05
3.856139716577e+05
3.856593346638e+05
3.857055248578e+05
3.857526137256e+05
3.858006813769e+05
3.858498179721e+05
3.859001254575e+05
3.859517196916e+05
3.860047330750e+05
3.860593178334e+05
3.861156501572e+05
3.861739354833e+05
3.862344153175e+05
3.862973761702e+05
3.863631614451e+05
3.864321875311e+05
3.865049660208e+05
3.865821350815e+05
3.866645049117e+05
3.867531256211e+05
3.868493922586e+05
3.869552143860e+05
3.870733044648e+05
3.872077012359e+05
3.873648026108e+05
3.875556471977e+05
3.943000000000e+05
3.943353922661e+05
3.943709170057e+05
3.944065814585e+05
3.944423933173e+05
3.944783607620e+05
3.945144924978e+05
3.945507977961e+05
3.945872865401e+05
3.946239692746e+05
3.946608572615e+05
3.946979625403e+05
3.947352979959e+05
3.947728774334e+05
3.948107156615e+05
3.948488285854e+05
3.948872333105e+05
3.949259482595e+05
3.949649933027e+05
3.950043899060e+05
3.950441612973e+05
3.950843326565e+05
3.951249313302e+05
3.951659870778e+05
3.952075323537e+05
3.952496026313e+05
3.952922367778e+05
3.953354774888e+05
3.953793717954e+05
3.954239716577e+05
3.954693346638e+05
3.955155248578e+05
3.955626137256e+05
3.956106813769e+05
3.956598179721e+05
3.957101254575e+05
3.957617196916e+05
3.958147330750e+05
3.958693178334e+05
3.959256501572e+05
3.959839354833e+05
3.960444153175e+05
3.961073761702e+05
3.961731614451e+05
3.962421875311e+05
3.963149660208e+05
3.963921350815e+05
3.964745049117e+05
3.965631256211e+05
3.966593922586e+05
3.967652143860e+05
3.968833044648e+05
3.970177012359e+05
3.971748026108e+05
3.973656471977e+05
4.041100000000e+05
4.041453922661e+05
4.041809170057e+05
4.042165814585e+05
4.042523933173e+05
4.042883607620e+05
4.043244924978e+05
4.043607977961e+05
4.043972865401e+05
4.044339692746e+05
4.044708572615e+05
4.045079625403e+05
4.045452979959e+05
4.045828774334e+05
4.046207156615e+05
4.046588285854e+05
4.046972333105e+05
4.047359482595e+05
4.047749933027e+05
4.048143899060e+05
4.048541612973e+05
4.048943326565e+05
4.049349313302e+05
4.049759870778e+05
4.050175323537e+05
4.050596026313e+05
4.051022367778e+05
4.051454774888e+05
4.051893717954e+05
4.052339716577e+05
4.052793346638e+05
4.053255248578e+05
4.053726137256e+05
4.054206813769e+05
4.054698179721e+05
4.055201254575e+05
4.055717196916e+05
4.056247330750e+05
4.056793178334e+05
4.057356501572e+05
4.057939354833e+05
4.058544153175e+05
4.059173761702e+05
4.059831614451e+05
4.060521875311e+05
4.061249660208e+05
4.062021350815e+05
4.062845049117e+05
4.063731256211e+05
4.064693922586e+05
4.065752143860e+05
4.066933044648e+05
4.068277012359e+05
4.069848026108e+05
4.071756471977e+05
4.139200000000e+05
4.139553922661e+05
4.139909170057e+05
4.140265814585e+05
4.140623933173e+05
4.140983607620e+05
4.141344924978e+05
4.141707977961e+05
4.142072865401e+05
4.142439692746e+05
4.142808572615e+05
4.143179625403e+05
4.143552979959e+05
4.143928774334e+05
4.144307156615e+05
4.144688285854e+05
4.145072333105e+05
4.145459482595e+05
4.145849933027e+05
4.146243899060e+05
4.146641612973e+05
4.147043326565e+05
4.147449313302e+05
4.147859870778e+05
4.148275323537e+05
4.148696026313e+05
4.149122367778e+05
4.149554774888e+05
4.149993717954e+05
4.150439716577e+05
4.150893346638e+05
4.151355248578e+05
4.151826137256e+05
4.152306813769e+05
4.152798179721e+05
4.153301254575e+05
4.153817196916e+05
4.154347330750e+05
4.154893178334e+05
4.155456501572e+05
4.156039354833e+05
4.156644153175e+05
4.157273761702e+05
4.157931614451e+05
4.158621875311e+05
4.159349660208e+05
4.160121350815e+05
4.160945049117e+05
4.161831256211e+05
4.162793922586e+05
4.163852143860e+05
4.165033044648e+05
4.166377012359e+05
4.167948026108e+05
4.169856471977e+05
4.237300000000e+05
4.237653922661e+05
4.238009170057e+05
4.238365814585e+05
4.238723933173e+05
4.239083607620e+05
4.239444924978e+05
4.239807977961e+05
4.240172865401e+05
4.240539692746e+05
4.240908572615e+05
4.241279625403e+05
4.241652979959e+05
4.242028774334e+05
4.242407156615e+05
4.242788285854e+05
4.243172333105e+05
4.243559482595e+05
4.243949933027e+05
4.244343899060e+05
4.244741612973e+05
4.245143326565e+05
4.245549313302e+05
4.245959870778e+05
4.246375323537e+05
4.246796026313e+05
4.247222367778e+05
4.247654774888e+05
4.248093717954e+05
4.248539716577e+05
4.248993346638e+05
4.249455248578e+05
4.249926137256e+05
4.250406813769e+05
4.250898179721e+05
4.251401254575e+05
4.251917196916e+05
4.252447330750e+05
4.252993178334e+05
4.253556501572e+05
4.254139354833e+05
4.254744153175e+05
4.255373761702e+05
4.256031614451e+05
4.256721875311e+05
4.257449660208e+05
4.258221350815e+05
4.259045049117e+05
4.259931256211e+05
4.260893922586e+05
4.261952143860e+05
4.263133044648e+05
4.264477012359e+05
4.266048026108e+05
4.267956471977e+05
4.335400000000e+05
4.335753922661e+05
4.336109170057e+05
4.336465814585e+05
4.336823933173e+05
4.337183607620e+05
4.337544924978e+05
4.337907977961e+05
4.338272865401e+05
4.338639692746e+05
4.339008572615e+05
4.339379625403e+05
4.339752979959e+05
4.340128774334e+05
4.340507156615e+05
4.340888285854e+05
4.341272333105e+05
4.341659482595e+05
4.342049933027e+05
4.342443899060e+05
4.342841612973e+05
4.343243326565e+05
4.343649313302e+05
4.344059870778e+05
4.344475323537e+05
4.344896026313e+05
4.345322367778e+05
4.345754774888e+05
4.346193717954e+05
4.346639716577e+05
4.347093346638e+05
4.347555248578e+05
4.348026137256e+05
4.348506813769e+05
4.348998179721e+05
4.349501254575e+05
4.350017196916e+05
4.350547330750e+05
4.351093178334e+05
4.351656501572e+05
4.352239354833e+05
4.352844153175e+05
4.353473761702e+05
4.354131614451e+05
4.354821875311e+05
4.355549660208e+05
4.356321350815e+05
4.357145049117e+05
4.358031256211e+05
4.358993922586e+05
4.360052143860e+05
4.361233044648e+05
4.362577012359e+05
4.364148026108e+05
4.366056471977e+05
4.433500000000e+05
4.433853922661e+05
4.434209170057e+05
4.434565814585e+05
4.434923933173e+05
4.435283607620e+05
4.435644924978e+05
4.436007977961e+05
4.436372865401e+05
4.436739692746e+05
4.437108572615e+05
4.437479625403e+05
4.437852979959e+05
4.438228774334e+05
4.438607156615e+05
4.438988285854e+05
4.439372333105e+05
4.439759482595e+05
4.440149933027e+05
4.440543899060e+05
4.440941612973e+05
4.441343326565e+05
4.441749313302e+05
4.442159870778e+05
4.442575323537e+05
4.442996026313e+05
4.443422367778e+05
4.443854774888e+05
4.444293717954e+05
4.444739716577e+05
4.445193346638e+05
4.445655248578e+05
4.446126137256e+05
4.446606813769e+05
4.447098179721e+05
4.447601254575e+05
4.448117196916e+05
4.448647330750e+05
4.449193178334e+05
4.449756501572e+05
4.450339354833e+05
4.450944153175e+05
4.451573761702e+05
4.452231614451e+05
4.452921875311e+05
4.453649660208e+05
4.454421350815e+05
4.455245049117e+05
4.456131256211e+05
4.457093922586e+05
4.458152143860e+05
4.459333044648e+05
4.460677012359e+05
4.462248026108e+05
4.464156471977e+05
4.531600000000e+05
4.531953922661e+05
4.532309170057e+05
4.532665814585e+05
4.533023933173e+05
4.533383607620e+05
4.533744924978e+05
4.534107977961e+05
4.534472865401e+05
4.534839692746e+05
4.535208572615e+05
4.535579625403e+05
4.535952979959e+05
4.536328774334e+05
4.536707156615e+05
4.537088285854e+05
4.537472333105e+05
4.537859482595e+05
4.538249933027e+05
4.538643899060e+05
4.539041612973e+05
4.539443326565e+05
4.539849313302e+05
4.540259870778e+05
4.540675323537e+05
4.541096026313e+05
4.541522367778e+05
4.541954774888e+05
4.542393717954e+05
4.542839716577e+05
4.543293346638e+05
4.543755248578e+05
4.544226137256e+05
4.544706813769e+05
4.545198179721e+05
4.545701254575e+05
4.546217196916e+05
4.546747330750e+05
4.547293178334e+05
4.547856501572e+05
4.548439354833e+05
4.549044153175e+05
4.549673761702e+05
4.550331614451e+05
4.551021875311e+05
4.551749660208e+05
4.552521350815e+05
4.553345049117e+05
4.554231256211e+05
4.555193922586e+05
4.556252143860e+05
4.557433044648e+05
4.558777012359e+05
4.560348026108e+05
4.562256471977e+05
4.629700000000e+05
4.630053922661e+05
4.630409170057e+05
4.630765814585e+05
4.631123933173e+05
4.631483607620e+05
4.631844924978e+05
4.632207977961e+05
4.632572865401e+05
4.632939692746e+05
4.633308572615e+05
4.633679625403e+05
4.634052979959e+05
4.634428774334e+05
4.634807156615e+05
4.635188285854e+05
4.635572333105e+05
4.635959482595e+05
4.636349933027e+05
4.636743899060e+05
4.637141612973e+05
4.637543326565e+05
4.637949313302e+05
4.638359870778e+05
4.638775323537e+05
4.639196026313e+05
4.639622367778e+05
4.640054774888e+05
4.640493717954e+05
4.640939716577e+05