# vtk DataFile Version 3.0
Unstructured Grid from OpenGeoSys
ASCII
DATASET UNSTRUCTURED_GRID
FIELD TimesAndCycles 2
TIME 1 1 double
8.640000000000e+04
CYLCE 1 1 long
1
POINTS 2478 double
5.000000000000e-02 0.000000000000e+00 -2.000000000000e+01
5.000000000000e-02 0.000000000000e+00 -2.100000000000e+01
1.000000000000e-01 0.000000000000e+00 -2.100000000000e+01
1.000000000000e-01 0.000000000000e+00 -2.000000000000e+01
5.000000000000e-02 0.000000000000e+00 -2.200000000000e+01
1.000000000000e-01 0.000000000000e+00 -2.200000000000e+01
5.000000000000e-02 0.000000000000e+00 -2.300000000000e+01
1.000000000000e-01 0.000000000000e+00 -2.300000000000e+01
5.000000000000e-02 0.000000000000e+00 -2.400000000000e+01
1.000000000000e-01 0.000000000000e+00 -2.400000000000e+01
5.000000000000e-02 0.000000000000e+00 -2.500000000000e+01
1.000000000000e-01 0.000000000000e+00 -2.500000000000e+01
5.000000000000e-02 0.000000000000e+00 -2.600000000000e+01
1.000000000000e-01 0.000000000000e+00 -2.600000000000e+01
5.000000000000e-02 0.000000000000e+00 -2.700000000000e+01
1.000000000000e-01 0.000000000000e+00 -2.700000000000e+01
5.000000000000e-02 0.000000000000e+00 -2.800000000000e+01
1.000000000000e-01 0.000000000000e+00 -2.800000000000e+01
5.000000000000e-02 0.000000000000e+00 -2.900000000000e+01
1.000000000000e-01 0.000000000000e+00 -2.900000000000e+01
5.000000000000e-02 0.000000000000e+00 -3.000000000000e+01
1.000000000000e-01 0.000000000000e+00 -3.000000000000e+01
5.000000000000e-02 0.000000000000e+00 -3.100000000000e+01
1.000000000000e-01 0.000000000000e+00 -3.100000000000e+01
5.000000000000e-02 0.000000000000e+00 -3.200000000000e+01
1.000000000000e-01 0.000000000000e+00 -3.200000000000e+01
5.000000000000e-02 0.000000000000e+00 -3.300000000000e+01
1.000000000000e-01 0.000000000000e+00 -3.300000000000e+01
5.000000000000e-02 0.000000000000e+00 -3.400000000000e+01
1.000000000000e-01 0.000000000000e+00 -3.400000000000e+01
5.000000000000e-02 0.000000000000e+00 -3.500000000000e+01
1.000000000000e-01 0.000000000000e+00 -3.500000000000e+01
5.000000000000e-02 0.000000000000e+00 -3.600000000000e+01
1.000000000000e-01 0.000000000000e+00 -3.600000000000e+01
5.000000000000e-02 0.000000000000e+00 -3.700000000000e+01
1.000000000000e-01 0.000000000000e+00 -3.700000000000e+01
5.000000000000e-02 0.000000000000e+00 -3.800000000000e+01
1.000000000000e-01 0.000000000000e+00 -3.800000000000e+01
5.000000000000e-02 0.000000000000e+00 -3.900000000000e+01
1.000000000000e-01 0.000000000000e+00 -3.900000000000e+01
5.000000000000e-02 0.000000000000e+00 -4.000000000000e+01
1.000000000000e-01 0.000000000000e+00 -4.000000000000e+01
2.000000000000e-01 0.000000000000e+00 -2.100000000000e+01
2.000000000000e-01 0.000000000000e+00 -2.000000000000e+01
2.000000000000e-01 0.000000000000e+00 -2.200000000000e+01
2.000000000000e-01 0.000000000000e+00 -2.300000000000e+01
2.000000000000e-01 0.000000000000e+00 -2.400000000000e+01
2.000000000000e-01 0.000000000000e+00 -2.500000000000e+01
2.000000000000e-01 0.000000000000e+00 -2.600000000000e+01
2.000000000000e-01 0.000000000000e+00 -2.700000000000e+01
2.000000000000e-01 0.000000000000e+00 -2.800000000000e+01
2.000000000000e-01 0.000000000000e+00 -2.900000000000e+01
2.000000000000e-01 0.000000000000e+00 -3.000000000000e+01
2.000000000000e-01 0.000000000000e+00 -3.100000000000e+01
2.000000000000e-01 0.000000000000e+00 -3.200000000000e+01
2.000000000000e-01 0.000000000000e+00 -3.300000000000e+01
2.000000000000e-01 0.000000000000e+00 -3.400000000000e+01
2.000000000000e-01 0.000000000000e+00 -3.500000000000e+01
2.000000000000e-01 0.000000000000e+00 -3.600000000000e+01
2.000000000000e-01 0.000000000000e+00 -3.700000000000e+01
2.000000000000e-01 0.000000000000e+00 -3.800000000000e+01
2.000000000000e-01 0.000000000000e+00 -3.900000000000e+01
2.000000000000e-01 0.000000000000e+00 -4.000000000000e+01
3.000000000000e-01 0.000000000000e+00 -2.100000000000e+01
3.000000000000e-01 0.000000000000e+00 -2.000000000000e+01
3.000000000000e-01 0.000000000000e+00 -2.200000000000e+01
3.000000000000e-01 0.000000000000e+00 -2.300000000000e+01
3.000000000000e-01 0.000000000000e+00 -2.400000000000e+01
3.000000000000e-01 0.000000000000e+00 -2.500000000000e+01
3.000000000000e-01 0.000000000000e+00 -2.600000000000e+01
3.000000000000e-01 0.000000000000e+00 -2.700000000000e+01
3.000000000000e-01 0.000000000000e+00 -2.800000000000e+01
3.000000000000e-01 0.000000000000e+00 -2.900000000000e+01
3.000000000000e-01 0.000000000000e+00 -3.000000000000e+01
3.000000000000e-01 0.000000000000e+00 -3.100000000000e+01
3.000000000000e-01 0.000000000000e+00 -3.200000000000e+01
3.000000000000e-01 0.000000000000e+00 -3.300000000000e+01
3.000000000000e-01 0.000000000000e+00 -3.400000000000e+01
3.000000000000e-01 0.000000000000e+00 -3.500000000000e+01
3.000000000000e-01 0.000000000000e+00 -3.600000000000e+01
3.000000000000e-01 0.000000000000e+00 -3.700000000000e+01
3.000000000000e-01 0.000000000000e+00 -3.800000000000e+01
3.000000000000e-01 0.000000000000e+00 -3.900000000000e+01
3.000000000000e-01 0.000000000000e+00 -4.000000000000e+01
3.017908699421e+01 0.000000000000e+00 -2.100000000000e+01
3.017908699421e+01 0.000000000000e+00 -2.000000000000e+01
2.873036212330e+01 0.000000000000e+00 -2.100000000000e+01
2.873036212330e+01 0.000000000000e+00 -2.000000000000e+01
2.734614430377e+01 0.000000000000e+00 -2.100000000000e+01
2.734614430377e+01 0.000000000000e+00 -2.000000000000e+01
2.602356124444e+01 0.000000000000e+00 -2.100000000000e+01
2.602356124444e+01 0.000000000000e+00 -2.000000000000e+01
2.475986854800e+01 0.000000000000e+00 -2.100000000000e+01
2.475986854800e+01 0.000000000000e+00 -2.000000000000e+01
2.355244401630e+01 0.000000000000e+00 -2.100000000000e+01
2.355244401630e+01 0.000000000000e+00 -2.000000000000e+01
2.239878220923e+01 0.000000000000e+00 -2.100000000000e+01
2.239878220923e+01 0.000000000000e+00 -2.000000000000e+01
2.129648924588e+01 0.000000000000e+00 -2.100000000000e+01
2.129648924588e+01 0.000000000000e+00 -2.000000000000e+01
2.024327783711e+01 0.000000000000e+00 -2.100000000000e+01
2.024327783711e+01 0.000000000000e+00 -2.000000000000e+01
1.923696253941e+01 0.000000000000e+00 -2.100000000000e+01
1.923696253941e+01 0.000000000000e+00 -2.000000000000e+01
1.827545522004e+01 0.000000000000e+00 -2.100000000000e+01
1.827545522004e+01 0.000000000000e+00 -2.000000000000e+01
1.735676072407e+01 0.000000000000e+00 -2.100000000000e+01
1.735676072407e+01 0.000000000000e+00 -2.000000000000e+01
1.647897273441e+01 0.000000000000e+00 -2.100000000000e+01
1.647897273441e+01 0.000000000000e+00 -2.000000000000e+01
1.564026981610e+01 0.000000000000e+00 -2.100000000000e+01
1.564026981610e+01 0.000000000000e+00 -2.000000000000e+01
1.483891163683e+01 0.000000000000e+00 -2.100000000000e+01
1.483891163683e+01 0.000000000000e+00 -2.000000000000e+01
1.407323535568e+01 0.000000000000e+00 -2.100000000000e+01
1.407323535568e+01 0.000000000000e+00 -2.000000000000e+01
1.334165217268e+01 0.000000000000e+00 -2.100000000000e+01
1.334165217268e+01 0.000000000000e+00 -2.000000000000e+01
1.264264403200e+01 0.000000000000e+00 -2.100000000000e+01
1.264264403200e+01 0.000000000000e+00 -2.000000000000e+01
1.197476047194e+01 0.000000000000e+00 -2.100000000000e+01
1.197476047194e+01 0.000000000000e+00 -2.000000000000e+01
1.133661561520e+01 0.000000000000e+00 -2.100000000000e+01
1.133661561520e+01 0.000000000000e+00 -2.000000000000e+01
1.072688529313e+01 0.000000000000e+00 -2.100000000000e+01
1.072688529313e+01 0.000000000000e+00 -2.000000000000e+01
1.014430429803e+01 0.000000000000e+00 -2.100000000000e+01
1.014430429803e+01 0.000000000000e+00 -2.000000000000e+01
9.587663757842e+00 0.000000000000e+00 -2.100000000000e+01
9.587663757842e+00 0.000000000000e+00 -2.000000000000e+01
9.055808627670e+00 0.000000000000e+00 -2.100000000000e+01
9.055808627670e+00 0.000000000000e+00 -2.000000000000e+01
8.547635293055e+00 0.000000000000e+00 -2.100000000000e+01
8.547635293055e+00 0.000000000000e+00 -2.000000000000e+01
8.062089279933e+00 0.000000000000e+00 -2.100000000000e+01
8.062089279933e+00 0.000000000000e+00 -2.000000000000e+01
7.598163066571e+00 0.000000000000e+00 -2.100000000000e+01
7.598163066571e+00 0.000000000000e+00 -2.000000000000e+01
7.154893992937e+00 0.000000000000e+00 -2.100000000000e+01
7.154893992937e+00 0.000000000000e+00 -2.000000000000e+01
6.731362263145e+00 0.000000000000e+00 -2.100000000000e+01
6.731362263145e+00 0.000000000000e+00 -2.000000000000e+01
6.326689036858e+00 0.000000000000e+00 -2.100000000000e+01
6.326689036858e+00 0.000000000000e+00 -2.000000000000e+01
5.940034605670e+00 0.000000000000e+00 -2.100000000000e+01
5.940034605670e+00 0.000000000000e+00 -2.000000000000e+01
5.570596650682e+00 0.000000000000e+00 -2.100000000000e+01
5.570596650682e+00 0.000000000000e+00 -2.000000000000e+01
5.217608577672e+00 0.000000000000e+00 -2.100000000000e+01
5.217608577672e+00 0.000000000000e+00 -2.000000000000e+01
4.880337926390e+00 0.000000000000e+00 -2.100000000000e+01
4.880337926390e+00 0.000000000000e+00 -2.000000000000e+01
4.558084850681e+00 0.000000000000e+00 -2.100000000000e+01
4.558084850681e+00 0.000000000000e+00 -2.000000000000e+01
4.250180666284e+00 0.000000000000e+00 -2.100000000000e+01
4.250180666284e+00 0.000000000000e+00 -2.000000000000e+01
3.955986463295e+00 0.000000000000e+00 -2.100000000000e+01
3.955986463295e+00 0.000000000000e+00 -2.000000000000e+01
3.674891780407e+00 0.000000000000e+00 -2.100000000000e+01
3.674891780407e+00 0.000000000000e+00 -2.000000000000e+01
3.406313338193e+00 0.000000000000e+00 -2.100000000000e+01
3.406313338193e+00 0.000000000000e+00 -2.000000000000e+01
3.149693828776e+00 0.000000000000e+00 -2.100000000000e+01
3.149693828776e+00 0.000000000000e+00 -2.000000000000e+01
2.904500759404e+00 0.000000000000e+00 -2.100000000000e+01
2.904500759404e+00 0.000000000000e+00 -2.000000000000e+01
2.670225347514e+00 0.000000000000e+00 -2.100000000000e+01
2.670225347514e+00 0.000000000000e+00 -2.000000000000e+01
2.446381464989e+00 0.000000000000e+00 -2.100000000000e+01
[...]
POINT_DATA 2478
SCALARS PRESSURE1 double 1
LOOKUP_TABLE default
3.061941819374e+05
3.160041819374e+05
3.149525730724e+05
3.051425730724e+05
3.258141819375e+05
3.247625730725e+05
3.356241819375e+05
3.345725730724e+05
3.454341819375e+05
3.443825730724e+05
3.552441819375e+05
3.541925730725e+05
3.650541819375e+05
3.640025730725e+05
3.748641819376e+05
3.738125730725e+05
3.846741819376e+05
3.836225730725e+05
3.944841819375e+05
3.934325730725e+05
4.042941819375e+05
4.032425730725e+05
4.141041819375e+05
4.130525730725e+05
4.239141819376e+05
4.228625730725e+05
4.337241819376e+05
4.326725730725e+05
4.435341819375e+05
4.424825730725e+05
4.533441819375e+05
4.522925730725e+05
4.631541819375e+05
4.621025730724e+05
4.729641819375e+05
4.719125730724e+05
4.827741819375e+05
4.817225730725e+05
4.925841819374e+05
4.915325730724e+05
5.023941819374e+05
5.013425730724e+05
3.139009642074e+05
3.040909642073e+05
3.237109642074e+05
3.335209642074e+05
3.433309642074e+05
3.531409642074e+05
3.629509642074e+05
3.727609642075e+05
3.825709642075e+05
3.923809642075e+05
4.021909642074e+05
4.120009642075e+05
4.218109642075e+05
4.316209642075e+05
4.414309642074e+05
4.512409642074e+05
4.610509642074e+05
4.708609642074e+05
4.806709642074e+05
4.904809642074e+05
5.002909642073e+05
3.132699988883e+05
3.034599988883e+05
3.230799988884e+05
3.328899988884e+05
3.426999988884e+05
3.525099988884e+05
3.623199988884e+05
3.721299988884e+05
3.819399988884e+05
3.917499988884e+05
4.015599988884e+05
4.113699988884e+05
4.211799988884e+05
4.309899988884e+05
4.407999988884e+05
4.506099988884e+05
4.604199988884e+05
4.702299988884e+05
4.800399988884e+05
4.898499988883e+05
4.996599988883e+05
3.060100000000e+05
2.962000000000e+05
3.060875847648e+05
2.962775847648e+05
3.061654599298e+05
2.963554599298e+05
3.062436413656e+05
2.964336413656e+05
3.063221459357e+05
2.965121459357e+05
3.064009915720e+05
2.965909915720e+05
3.064801973571e+05
2.966701973571e+05
3.065597836154e+05
2.967497836154e+05
3.066397720119e+05
2.968297720119e+05
3.067201856627e+05
2.969101856627e+05
3.068010492552e+05
2.969910492552e+05
3.068823891818e+05
2.970723891818e+05
3.069642336879e+05
2.971542336879e+05
3.070466130363e+05
2.972366130363e+05
3.071295596896e+05
2.973195596896e+05
3.072131085141e+05
2.974031085141e+05
3.072972970077e+05
2.974872970077e+05
3.073821655550e+05
2.975721655550e+05
3.074677577147e+05
2.976577577147e+05
3.075541205428e+05
2.977441205428e+05
3.076413049585e+05
2.978313049585e+05
3.077293661593e+05
2.979193661593e+05
3.078183640928e+05
2.980083640928e+05
3.079083639960e+05
2.980983639960e+05
3.079994370132e+05
2.981894370132e+05
3.080916609070e+05
2.982816609070e+05
3.081851208796e+05
2.983751208796e+05
3.082799105261e+05
2.984699105261e+05
3.083761329449e+05
2.985661329449e+05
3.084739020397e+05
2.986639020397e+05
3.085733440520e+05
2.987633440520e+05
3.086745993750e+05
2.988645993750e+05
3.087778247157e+05
2.989678247157e+05
3.088831956859e+05
2.990731956859e+05
3.089909099299e+05
2.991809099299e+05
3.091011909276e+05
2.992911909276e+05
3.092142926572e+05
2.994042926572e+05
3.093305053595e+05
2.995205053595e+05
3.094501627339e+05
2.996401627339e+05
3.095736510146e+05
2.997636510146e+05
3.097014205478e+05
2.998914205478e+05
3.098340007474e+05
3.000240007474e+05
3.099720196845e+05
3.001620196845e+05
3.101162301472e+05
3.003062301472e+05
3.102675449184e+05
3.004575449184e+05
3.104270854798e+05
3.006170854798e+05
3.105962507827e+05
3.007862507827e+05
3.107768168952e+05
3.009668168952e+05
3.109710858032e+05
3.011610858032e+05
3.111821156479e+05
3.013721156479e+05
3.114140924543e+05
3.016040924542e+05
3.116729623147e+05
3.018629623146e+05
3.119675787101e+05
3.021575787101e+05
3.123119667519e+05
3.025019667519e+05
3.127303246026e+05
3.029203246026e+05
3.158200000000e+05
3.158975847648e+05
3.159754599298e+05
3.160536413656e+05
3.161321459357e+05
3.162109915720e+05
3.162901973571e+05
3.163697836154e+05
3.164497720119e+05
3.165301856627e+05
3.166110492552e+05
3.166923891818e+05
3.167742336879e+05
3.168566130363e+05
3.169395596896e+05
3.170231085141e+05
3.171072970077e+05
3.171921655550e+05
3.172777577147e+05
3.173641205428e+05
3.174513049585e+05
3.175393661593e+05
3.176283640928e+05
3.177183639960e+05
3.178094370132e+05
3.179016609070e+05
3.179951208796e+05
3.180899105261e+05
3.181861329449e+05
3.182839020397e+05
3.183833440520e+05
3.184845993750e+05
3.185878247157e+05
3.186931956859e+05
3.188009099299e+05
3.189111909276e+05
3.190242926572e+05
3.191405053595e+05
3.192601627339e+05
3.193836510146e+05
3.195114205478e+05
3.196440007474e+05
3.197820196845e+05
3.199262301472e+05
3.200775449184e+05
3.202370854798e+05
3.204062507827e+05
3.205868168952e+05
3.207810858032e+05
3.209921156480e+05
3.212240924543e+05
3.214829623147e+05
3.217775787102e+05
3.221219667519e+05
3.225403246026e+05
3.256300000000e+05
3.257075847648e+05
3.257854599298e+05
3.258636413656e+05
3.259421459357e+05
3.260209915720e+05
3.261001973571e+05
3.261797836154e+05
3.262597720119e+05
3.263401856628e+05
3.264210492552e+05
3.265023891818e+05
3.265842336879e+05
3.266666130363e+05
3.267495596896e+05
3.268331085141e+05
3.269172970077e+05
3.270021655550e+05
3.270877577147e+05
3.271741205428e+05
3.272613049585e+05
3.273493661593e+05
3.274383640928e+05
3.275283639960e+05
3.276194370132e+05
3.277116609070e+05
3.278051208796e+05
3.278999105261e+05
3.279961329449e+05
3.280939020397e+05
3.281933440520e+05
3.282945993750e+05
3.283978247157e+05
3.285031956859e+05
3.286109099299e+05
3.287211909276e+05
3.288342926572e+05
3.289505053595e+05
3.290701627339e+05
3.291936510146e+05
3.293214205478e+05
3.294540007474e+05
3.295920196845e+05
3.297362301472e+05
3.298875449184e+05
3.300470854798e+05
3.302162507827e+05
3.303968168952e+05
3.305910858032e+05
3.308021156480e+05
3.310340924543e+05
3.312929623147e+05
3.315875787102e+05
3.319319667519e+05
3.323503246026e+05
3.354400000000e+05
3.355175847648e+05
3.355954599298e+05
3.356736413656e+05
3.357521459357e+05
3.358309915720e+05
3.359101973571e+05
3.359897836154e+05
3.360697720119e+05
3.361501856628e+05
3.362310492552e+05
3.363123891818e+05
3.363942336879e+05
3.364766130363e+05
3.365595596896e+05
3.366431085141e+05
3.367272970077e+05
3.368121655550e+05
3.368977577147e+05
3.369841205428e+05
3.370713049585e+05
3.371593661593e+05
3.372483640928e+05
3.373383639960e+05
3.374294370132e+05
3.375216609070e+05
3.376151208796e+05
3.377099105261e+05
3.378061329449e+05
3.379039020397e+05
3.380033440520e+05
3.381045993750e+05
3.382078247157e+05
3.383131956859e+05
3.384209099299e+05
3.385311909276e+05
3.386442926572e+05
3.387605053595e+05
3.388801627339e+05
3.390036510146e+05
3.391314205478e+05
3.392640007474e+05
3.394020196845e+05
3.395462301472e+05
3.396975449184e+05
3.398570854798e+05
3.400262507827e+05
3.402068168952e+05
3.404010858032e+05
3.406121156480e+05
3.408440924543e+05
3.411029623147e+05
3.413975787102e+05
3.417419667519e+05
3.421603246026e+05
3.452500000000e+05
3.453275847648e+05
3.454054599298e+05
3.454836413656e+05
3.455621459357e+05
3.456409915720e+05
3.457201973571e+05
3.457997836154e+05
3.458797720119e+05
3.459601856628e+05
3.460410492552e+05
3.461223891818e+05
3.462042336879e+05
3.462866130363e+05
3.463695596896e+05
3.464531085141e+05
3.465372970077e+05
3.466221655550e+05
3.467077577147e+05
3.467941205428e+05
3.468813049585e+05
3.469693661593e+05
3.470583640928e+05
3.471483639960e+05
3.472394370132e+05
3.473316609070e+05
3.474251208796e+05
3.475199105261e+05
3.476161329449e+05
3.477139020397e+05
3.478133440520e+05
3.479145993750e+05
3.480178247157e+05
3.481231956859e+05
3.482309099299e+05
3.483411909276e+05
3.484542926572e+05
3.485705053595e+05
3.486901627339e+05
3.488136510146e+05
3.489414205478e+05
3.490740007474e+05
3.492120196845e+05
3.493562301472e+05
3.495075449184e+05
3.496670854798e+05
3.498362507828e+05
3.500168168952e+05
3.502110858032e+05
3.504221156480e+05
3.506540924543e+05
3.509129623147e+05
3.512075787102e+05
3.515519667519e+05
3.519703246026e+05
3.550600000000e+05
3.551375847648e+05
3.552154599298e+05
3.552936413656e+05
3.553721459357e+05
3.554509915720e+05
3.555301973571e+05
3.556097836154e+05
3.556897720119e+05
3.557701856628e+05
3.558510492552e+05
3.559323891818e+05
3.560142336879e+05
3.560966130363e+05
3.561795596896e+05
3.562631085141e+05
3.563472970077e+05
3.564321655550e+05
3.565177577147e+05
3.566041205428e+05
3.566913049585e+05
3.567793661593e+05
3.568683640928e+05
3.569583639960e+05
3.570494370132e+05
3.571416609070e+05
3.572351208796e+05
3.573299105261e+05
3.574261329449e+05
3.575239020397e+05
3.576233440520e+05
3.577245993750e+05
3.578278247157e+05
3.579331956859e+05
3.580409099299e+05
3.581511909276e+05
3.582642926572e+05
3.583805053595e+05
3.585001627339e+05
3.586236510146e+05
3.587514205478e+05
3.588840007474e+05
3.590220196845e+05
3.591662301472e+05
3.593175449184e+05
3.594770854798e+05
3.596462507828e+05
3.598268168952e+05
3.600210858032e+05
3.602321156480e+05
3.604640924543e+05
3.607229623147e+05
3.610175787102e+05
3.613619667519e+05
3.617803246027e+05
3.648700000000e+05
3.649475847648e+05
3.650254599298e+05
3.651036413656e+05
3.651821459357e+05
3.652609915720e+05
3.653401973571e+05
3.654197836154e+05
3.654997720119e+05
3.655801856628e+05
3.656610492552e+05
3.657423891818e+05
3.658242336879e+05
3.659066130363e+05
3.659895596896e+05
3.660731085141e+05
3.661572970077e+05
3.662421655550e+05
3.663277577147e+05
3.664141205428e+05
3.665013049585e+05
3.665893661593e+05
3.666783640928e+05
3.667683639960e+05
3.668594370132e+05
3.669516609070e+05
3.670451208796e+05
3.671399105261e+05
3.672361329449e+05
3.673339020397e+05
3.674333440520e+05
3.675345993750e+05
3.676378247157e+05
3.677431956859e+05
3.678509099299e+05
3.679611909276e+05
3.680742926572e+05
3.681905053595e+05
3.683101627339e+05
3.684336510146e+05
3.685614205478e+05
3.686940007474e+05
3.688320196845e+05
3.689762301472e+05
3.691275449184e+05
3.692870854798e+05
3.694562507828e+05
3.696368168952e+05
3.698310858032e+05
3.700421156480e+05
3.702740924543e+05
3.705329623147e+05
3.708275787102e+05
3.711719667519e+05
3.715903246027e+05
3.746800000000e+05
3.747575847648e+05
3.748354599298e+05
3.749136413656e+05
3.749921459357e+05
3.750709915720e+05
3.751501973571e+05
3.752297836154e+05
3.753097720119e+05
3.753901856628e+05
3.754710492552e+05
3.755523891818e+05
3.756342336879e+05
3.757166130363e+05
3.757995596896e+05
3.758831085141e+05
3.759672970077e+05
3.760521655550e+05
3.761377577147e+05
3.762241205428e+05
3.763113049585e+05
3.763993661593e+05
3.764883640928e+05
3.765783639960e+05
3.766694370132e+05
3.767616609070e+05
3.768551208796e+05
3.769499105261e+05
3.770461329449e+05
3.771439020397e+05
3.772433440520e+05
3.773445993750e+05
3.774478247157e+05
3.775531956859e+05
3.776609099299e+05
3.777711909276e+05
3.778842926572e+05
3.780005053595e+05
3.781201627339e+05
3.782436510146e+05
3.783714205478e+05
3.785040007474e+05
3.786420196845e+05
3.787862301472e+05
3.789375449184e+05
3.790970854798e+05
3.792662507828e+05
3.794468168952e+05
3.796410858032e+05
3.798521156480e+05
3.800840924543e+05
3.803429623147e+05
3.806375787102e+05
3.809819667519e+05
3.814003246027e+05
3.844900000000e+05
3.845675847648e+05
3.846454599298e+05
3.847236413656e+05
3.848021459357e+05
3.848809915720e+05
3.849601973571e+05
3.850397836154e+05
3.851197720119e+05
3.852001856628e+05
3.852810492552e+05
3.853623891818e+05
3.854442336879e+05
3.855266130363e+05
3.856095596896e+05
3.856931085141e+05
3.857772970077e+05
3.858621655550e+05
3.859477577147e+05
3.860341205428e+05
3.861213049585e+05
3.862093661593e+05
3.862983640928e+05
3.863883639960e+05
3.864794370132e+05
3.865716609070e+05
3.866651208796e+05
3.867599105261e+05
3.868561329449e+05
3.869539020397e+05
3.870533440520e+05
3.871545993750e+05
3.872578247157e+05
3.873631956859e+05
3.874709099299e+05
3.875811909276e+05
3.876942926572e+05
3.878105053595e+05
3.879301627340e+05
3.880536510146e+05
3.881814205478e+05
3.883140007474e+05
3.884520196845e+05
3.885962301473e+05
3.887475449184e+05
3.889070854798e+05
3.890762507828e+05
3.892568168952e+05
3.894510858032e+05
3.896621156480e+05
3.898940924543e+05
3.901529623147e+05
3.904475787102e+05
3.907919667519e+05
3.912103246027e+05
3.943000000000e+05
3.943775847648e+05
3.944554599298e+05
3.945336413656e+05
3.946121459357e+05
3.946909915720e+05
3.947701973571e+05
3.948497836154e+05
3.949297720119e+05
3.950101856628e+05
3.950910492552e+05
3.951723891818e+05
3.952542336879e+05
3.953366130363e+05
3.954195596896e+05
3.955031085141e+05
3.955872970077e+05
3.956721655550e+05
3.957577577147e+05
3.958441205428e+05
3.959313049585e+05
3.960193661593e+05
3.961083640928e+05
3.961983639960e+05
3.962894370132e+05
3.963816609070e+05
3.964751208796e+05
3.965699105261e+05
3.966661329449e+05
3.967639020398e+05
3.968633440520e+05
3.969645993750e+05
3.970678247157e+05
3.971731956859e+05
3.972809099299e+05
3.973911909276e+05
3.975042926572e+05
3.976205053595e+05
3.977401627340e+05
3.978636510146e+05
3.979914205478e+05
3.981240007474e+05
3.982620196845e+05
3.984062301473e+05
3.985575449184e+05
3.987170854798e+05
3.988862507828e+05
3.990668168952e+05
3.992610858032e+05
3.994721156480e+05
3.997040924543e+05
3.999629623147e+05
4.002575787102e+05
4.006019667519e+05
4.010203246027e+05
4.041100000000e+05
4.041875847648e+05
4.042654599298e+05
4.043436413656e+05
4.044221459357e+05
4.045009915720e+05
4.045801973571e+05
4.046597836154e+05
4.047397720119e+05
4.048201856628e+05
4.049010492552e+05
4.049823891818e+05
4.050642336879e+05
4.051466130363e+05
4.052295596896e+05
4.053131085141e+05
4.053972970077e+05
4.054821655550e+05
4.055677577147e+05
4.056541205428e+05
4.057413049585e+05
4.058293661593e+05
4.059183640928e+05
4.060083639960e+05
4.060994370132e+05
4.061916609070e+05
4.062851208796e+05
4.063799105261e+05
4.064761329449e+05
4.065739020398e+05
4.066733440520e+05
4.067745993750e+05
4.068778247157e+05
4.069831956859e+05
4.070909099299e+05
4.072011909276e+05
4.073142926572e+05
4.074305053595e+05
4.075501627340e+05
4.076736510146e+05
4.078014205478e+05
4.079340007474e+05
4.080720196845e+05
4.082162301473e+05
4.083675449184e+05
4.085270854798e+05
4.086962507828e+05
4.088768168952e+05
4.090710858032e+05
4.092821156480e+05
4.095140924543e+05
4.097729623147e+05
4.100675787102e+05
4.104119667519e+05
4.108303246027e+05
4.139200000000e+05
4.139975847648e+05
4.140754599298e+05
4.141536413656e+05
4.142321459357e+05
4.143109915720e+05
4.143901973572e+05
4.144697836154e+05
4.145497720119e+05
4.146301856628e+05
4.147110492552e+05
4.147923891818e+05
4.148742336879e+05
4.149566130363e+05
4.150395596896e+05
4.151231085141e+05
4.152072970077e+05
4.152921655550e+05
4.153777577147e+05
4.154641205428e+05
4.155513049585e+05
4.156393661593e+05
4.157283640928e+05
4.158183639960e+05
4.159094370132e+05
4.160016609070e+05
4.160951208796e+05
4.161899105261e+05
4.162861329449e+05
4.163839020398e+05
4.164833440520e+05
4.165845993750e+05
4.166878247157e+05
4.167931956859e+05
4.169009099299e+05
4.170111909276e+05
4.171242926572e+05
4.172405053595e+05
4.173601627340e+05
4.174836510146e+05
4.176114205478e+05
4.177440007474e+05
4.178820196845e+05
4.180262301473e+05
4.181775449184e+05
4.183370854798e+05
4.185062507828e+05
4.186868168952e+05
4.188810858032e+05
4.190921156480e+05
4.193240924543e+05
4.195829623147e+05
4.198775787102e+05
4.202219667519e+05
4.206403246027e+05
4.237300000000e+05
4.238075847648e+05
4.238854599298e+05
4.239636413656e+05
4.240421459357e+05
4.241209915720e+05
4.242001973571e+05
4.242797836154e+05
4.243597720119e+05
4.244401856628e+05
4.245210492552e+05
4.246023891818e+05
4.246842336879e+05
4.247666130363e+05
4.248495596896e+05
4.249331085141e+05
4.250172970077e+05
4.251021655550e+05
4.251877577147e+05
4.252741205428e+05
4.253613049585e+05
4.254493661593e+05
4.255383640928e+05
4.256283639960e+05
4.257194370132e+05
4.258116609070e+05
4.259051208796e+05
4.259999105261e+05
4.260961329449e+05
4.261939020398e+05
4.262933440520e+05
4.263945993750e+05
4.264978247157e+05
4.266031956859e+05
4.267109099299e+05
4.268211909276e+05
4.269342926572e+05
4.270505053595e+05
4.271701627339e+05
4.272936510146e+05
4.274214205478e+05
4.275540007474e+05
4.276920196845e+05
4.278362301472e+05
4.279875449184e+05
4.281470854798e+05
4.283162507828e+05
4.284968168952e+05
4.286910858032e+05
4.289021156480e+05
4.291340924543e+05
4.293929623147e+05
4.296875787102e+05
4.300319667519e+05
4.304503246027e+05
4.335400000000e+05
4.336175847648e+05
4.336954599298e+05
4.337736413656e+05
4.338521459357e+05
4.339309915720e+05
4.340101973571e+05
4.340897836154e+05
4.341697720119e+05
4.342501856628e+05
4.343310492552e+05
4.344123891818e+05
4.344942336879e+05
4.345766130363e+05
4.346595596896e+05
4.347431085141e+05
4.348272970077e+05
4.349121655550e+05
4.349977577147e+05
4.350841205428e+05
4.351713049585e+05
4.352593661593e+05
4.353483640928e+05
4.354383639960e+05
4.355294370132e+05
4.356216609070e+05
4.357151208796e+05
4.358099105261e+05
4.359061329449e+05
4.360039020398e+05
4.361033440520e+05
4.362045993750e+05
4.363078247157e+05
4.364131956859e+05
4.365209099299e+05
4.366311909276e+05
4.367442926572e+05
4.368605053595e+05
4.369801627339e+05
4.371036510146e+05
4.372314205478e+05
4.373640007474e+05
4.375020196845e+05
4.376462301472e+05
4.377975449184e+05
4.379570854798e+05
4.381262507828e+05
4.383068168952e+05
4.385010858032e+05
4.387121156480e+05
4.389440924543e+05
4.392029623147e+05
4.394975787102e+05
4.398419667519e+05
4.402603246026e+05
4.433500000000e+05
4.434275847648e+05
4.435054599298e+05
4.435836413656e+05
4.436621459357e+05
4.437409915720e+05
4.438201973571e+05
4.438997836154e+05
4.439797720119e+05
4.440601856628e+05
4.441410492552e+05
4.442223891818e+05
4.443042336879e+05
4.443866130363e+05
4.444695596896e+05
4.445531085141e+05
4.446372970077e+05
4.447221655550e+05
4.448077577147e+05
4.448941205428e+05
4.449813049585e+05
4.450693661593e+05
4.451583640928e+05
4.452483639960e+05
4.453394370132e+05
4.454316609070e+05
4.455251208796e+05
4.456199105261e+05
4.457161329449e+05
4.458139020398e+05
4.459133440520e+05
4.460145993750e+05
4.461178247157e+05
4.462231956859e+05
4.463309099299e+05
4.464411909276e+05
4.465542926572e+05
4.466705053595e+05
4.467901627339e+05
4.469136510146e+05
4.470414205478e+05
4.471740007474e+05
4.473120196845e+05
4.474562301472e+05
4.476075449184e+05
4.477670854798e+05
4.479362507828e+05
4.481168168952e+05
4.483110858032e+05
4.485221156480e+05
4.487540924543e+05
4.490129623147e+05
4.493075787102e+05
4.496519667519e+05
4.500703246026e+05
4.531600000000e+05
4.532375847648e+05
4.533154599298e+05
4.533936413656e+05
4.534721459357e+05
4.535509915720e+05
4.536301973571e+05
4.537097836154e+05
4.537897720119e+05
4.538701856628e+05
4.539510492552e+05
4.540323891818e+05
4.541142336879e+05
4.541966130363e+05
4.542795596896e+05
4.543631085141e+05
4.544472970077e+05
4.545321655550e+05
4.546177577147e+05
4.547041205428e+05
4.547913049585e+05
4.548793661593e+05
4.549683640928e+05
4.550583639960e+05
4.551494370132e+05
4.552416609070e+05
4.553351208796e+05
4.554299105261e+05
4.555261329449e+05
4.556239020398e+05
4.557233440520e+05
4.558245993750e+05
4.559278247157e+05
4.560331956859e+05
4.561409099299e+05
4.562511909276e+05
4.563642926572e+05
4.564805053595e+05
4.566001627339e+05
4.567236510146e+05
4.568514205478e+05
4.569840007474e+05
4.571220196845e+05
4.572662301472e+05
4.574175449184e+05
4.575770854798e+05
4.577462507827e+05
4.579268168952e+05
4.581210858032e+05
4.583321156480e+05
4.585640924543e+05
4.588229623147e+05
4.591175787102e+05
4.594619667519e+05
4.598803246026e+05
4.629700000000e+05
4.630475847648e+05
4.631254599298e+05
4.632036413656e+05
4.632821459357e+05
4.633609915720e+05
4.634401973571e+05
4.635197836154e+05
4.635997720119e+05
4.636801856628e+05
4.637610492552e+05
4.638423891818e+05
4.639242336879e+05
4.640066130363e+05
4.640895596896e+05
4.641731085141e+05
4.642572970077e+05
4.643421655550e+05
4.644277577147e+05
4.645141205428e+05
4.646013049585e+05
4.646893661593e+05
4.647783640928e+05
4.648683639960e+05
4.649594370132e+05
4.650516609070e+05
4.651451208796e+05
4.652399105261e+05
4.653361329449e+05
4.654339020397e+05