# vtk DataFile Version 3.0
Unstructured Grid from OpenGeoSys
ASCII
DATASET UNSTRUCTURED_GRID
FIELD TimesAndCycles 2
TIME 1 1 double
8.640000000000e+04
CYLCE 1 1 long
1
POINTS 2478 double
5.000000000000e-02 0.000000000000e+00 -2.000000000000e+01
5.000000000000e-02 0.000000000000e+00 -2.100000000000e+01
1.000000000000e-01 0.000000000000e+00 -2.100000000000e+01
1.000000000000e-01 0.000000000000e+00 -2.000000000000e+01
5.000000000000e-02 0.000000000000e+00 -2.200000000000e+01
1.000000000000e-01 0.000000000000e+00 -2.200000000000e+01
5.000000000000e-02 0.000000000000e+00 -2.300000000000e+01
1.000000000000e-01 0.000000000000e+00 -2.300000000000e+01
5.000000000000e-02 0.000000000000e+00 -2.400000000000e+01
1.000000000000e-01 0.000000000000e+00 -2.400000000000e+01
5.000000000000e-02 0.000000000000e+00 -2.500000000000e+01
1.000000000000e-01 0.000000000000e+00 -2.500000000000e+01
5.000000000000e-02 0.000000000000e+00 -2.600000000000e+01
1.000000000000e-01 0.000000000000e+00 -2.600000000000e+01
5.000000000000e-02 0.000000000000e+00 -2.700000000000e+01
1.000000000000e-01 0.000000000000e+00 -2.700000000000e+01
5.000000000000e-02 0.000000000000e+00 -2.800000000000e+01
1.000000000000e-01 0.000000000000e+00 -2.800000000000e+01
5.000000000000e-02 0.000000000000e+00 -2.900000000000e+01
1.000000000000e-01 0.000000000000e+00 -2.900000000000e+01
5.000000000000e-02 0.000000000000e+00 -3.000000000000e+01
1.000000000000e-01 0.000000000000e+00 -3.000000000000e+01
5.000000000000e-02 0.000000000000e+00 -3.100000000000e+01
1.000000000000e-01 0.000000000000e+00 -3.100000000000e+01
5.000000000000e-02 0.000000000000e+00 -3.200000000000e+01
1.000000000000e-01 0.000000000000e+00 -3.200000000000e+01
5.000000000000e-02 0.000000000000e+00 -3.300000000000e+01
1.000000000000e-01 0.000000000000e+00 -3.300000000000e+01
5.000000000000e-02 0.000000000000e+00 -3.400000000000e+01
1.000000000000e-01 0.000000000000e+00 -3.400000000000e+01
5.000000000000e-02 0.000000000000e+00 -3.500000000000e+01
1.000000000000e-01 0.000000000000e+00 -3.500000000000e+01
5.000000000000e-02 0.000000000000e+00 -3.600000000000e+01
1.000000000000e-01 0.000000000000e+00 -3.600000000000e+01
5.000000000000e-02 0.000000000000e+00 -3.700000000000e+01
1.000000000000e-01 0.000000000000e+00 -3.700000000000e+01
5.000000000000e-02 0.000000000000e+00 -3.800000000000e+01
1.000000000000e-01 0.000000000000e+00 -3.800000000000e+01
5.000000000000e-02 0.000000000000e+00 -3.900000000000e+01
1.000000000000e-01 0.000000000000e+00 -3.900000000000e+01
5.000000000000e-02 0.000000000000e+00 -4.000000000000e+01
1.000000000000e-01 0.000000000000e+00 -4.000000000000e+01
2.000000000000e-01 0.000000000000e+00 -2.100000000000e+01
2.000000000000e-01 0.000000000000e+00 -2.000000000000e+01
2.000000000000e-01 0.000000000000e+00 -2.200000000000e+01
2.000000000000e-01 0.000000000000e+00 -2.300000000000e+01
2.000000000000e-01 0.000000000000e+00 -2.400000000000e+01
2.000000000000e-01 0.000000000000e+00 -2.500000000000e+01
2.000000000000e-01 0.000000000000e+00 -2.600000000000e+01
2.000000000000e-01 0.000000000000e+00 -2.700000000000e+01
2.000000000000e-01 0.000000000000e+00 -2.800000000000e+01
2.000000000000e-01 0.000000000000e+00 -2.900000000000e+01
2.000000000000e-01 0.000000000000e+00 -3.000000000000e+01
2.000000000000e-01 0.000000000000e+00 -3.100000000000e+01
2.000000000000e-01 0.000000000000e+00 -3.200000000000e+01
2.000000000000e-01 0.000000000000e+00 -3.300000000000e+01
2.000000000000e-01 0.000000000000e+00 -3.400000000000e+01
2.000000000000e-01 0.000000000000e+00 -3.500000000000e+01
2.000000000000e-01 0.000000000000e+00 -3.600000000000e+01
2.000000000000e-01 0.000000000000e+00 -3.700000000000e+01
2.000000000000e-01 0.000000000000e+00 -3.800000000000e+01
2.000000000000e-01 0.000000000000e+00 -3.900000000000e+01
2.000000000000e-01 0.000000000000e+00 -4.000000000000e+01
3.000000000000e-01 0.000000000000e+00 -2.100000000000e+01
3.000000000000e-01 0.000000000000e+00 -2.000000000000e+01
3.000000000000e-01 0.000000000000e+00 -2.200000000000e+01
3.000000000000e-01 0.000000000000e+00 -2.300000000000e+01
3.000000000000e-01 0.000000000000e+00 -2.400000000000e+01
3.000000000000e-01 0.000000000000e+00 -2.500000000000e+01
3.000000000000e-01 0.000000000000e+00 -2.600000000000e+01
3.000000000000e-01 0.000000000000e+00 -2.700000000000e+01
3.000000000000e-01 0.000000000000e+00 -2.800000000000e+01
3.000000000000e-01 0.000000000000e+00 -2.900000000000e+01
3.000000000000e-01 0.000000000000e+00 -3.000000000000e+01
3.000000000000e-01 0.000000000000e+00 -3.100000000000e+01
3.000000000000e-01 0.000000000000e+00 -3.200000000000e+01
3.000000000000e-01 0.000000000000e+00 -3.300000000000e+01
3.000000000000e-01 0.000000000000e+00 -3.400000000000e+01
3.000000000000e-01 0.000000000000e+00 -3.500000000000e+01
3.000000000000e-01 0.000000000000e+00 -3.600000000000e+01
3.000000000000e-01 0.000000000000e+00 -3.700000000000e+01
3.000000000000e-01 0.000000000000e+00 -3.800000000000e+01
3.000000000000e-01 0.000000000000e+00 -3.900000000000e+01
3.000000000000e-01 0.000000000000e+00 -4.000000000000e+01
3.017908699421e+01 0.000000000000e+00 -2.100000000000e+01
3.017908699421e+01 0.000000000000e+00 -2.000000000000e+01
2.873036212330e+01 0.000000000000e+00 -2.100000000000e+01
2.873036212330e+01 0.000000000000e+00 -2.000000000000e+01
2.734614430377e+01 0.000000000000e+00 -2.100000000000e+01
2.734614430377e+01 0.000000000000e+00 -2.000000000000e+01
2.602356124444e+01 0.000000000000e+00 -2.100000000000e+01
2.602356124444e+01 0.000000000000e+00 -2.000000000000e+01
2.475986854800e+01 0.000000000000e+00 -2.100000000000e+01
2.475986854800e+01 0.000000000000e+00 -2.000000000000e+01
2.355244401630e+01 0.000000000000e+00 -2.100000000000e+01
2.355244401630e+01 0.000000000000e+00 -2.000000000000e+01
2.239878220923e+01 0.000000000000e+00 -2.100000000000e+01
2.239878220923e+01 0.000000000000e+00 -2.000000000000e+01
2.129648924588e+01 0.000000000000e+00 -2.100000000000e+01
2.129648924588e+01 0.000000000000e+00 -2.000000000000e+01
2.024327783711e+01 0.000000000000e+00 -2.100000000000e+01
2.024327783711e+01 0.000000000000e+00 -2.000000000000e+01
1.923696253941e+01 0.000000000000e+00 -2.100000000000e+01
1.923696253941e+01 0.000000000000e+00 -2.000000000000e+01
1.827545522004e+01 0.000000000000e+00 -2.100000000000e+01
1.827545522004e+01 0.000000000000e+00 -2.000000000000e+01
1.735676072407e+01 0.000000000000e+00 -2.100000000000e+01
1.735676072407e+01 0.000000000000e+00 -2.000000000000e+01
1.647897273441e+01 0.000000000000e+00 -2.100000000000e+01
1.647897273441e+01 0.000000000000e+00 -2.000000000000e+01
1.564026981610e+01 0.000000000000e+00 -2.100000000000e+01
1.564026981610e+01 0.000000000000e+00 -2.000000000000e+01
1.483891163683e+01 0.000000000000e+00 -2.100000000000e+01
1.483891163683e+01 0.000000000000e+00 -2.000000000000e+01
1.407323535568e+01 0.000000000000e+00 -2.100000000000e+01
1.407323535568e+01 0.000000000000e+00 -2.000000000000e+01
1.334165217268e+01 0.000000000000e+00 -2.100000000000e+01
1.334165217268e+01 0.000000000000e+00 -2.000000000000e+01
1.264264403200e+01 0.000000000000e+00 -2.100000000000e+01
1.264264403200e+01 0.000000000000e+00 -2.000000000000e+01
1.197476047194e+01 0.000000000000e+00 -2.100000000000e+01
1.197476047194e+01 0.000000000000e+00 -2.000000000000e+01
1.133661561520e+01 0.000000000000e+00 -2.100000000000e+01
1.133661561520e+01 0.000000000000e+00 -2.000000000000e+01
1.072688529313e+01 0.000000000000e+00 -2.100000000000e+01
1.072688529313e+01 0.000000000000e+00 -2.000000000000e+01
1.014430429803e+01 0.000000000000e+00 -2.100000000000e+01
1.014430429803e+01 0.000000000000e+00 -2.000000000000e+01
9.587663757842e+00 0.000000000000e+00 -2.100000000000e+01
9.587663757842e+00 0.000000000000e+00 -2.000000000000e+01
9.055808627670e+00 0.000000000000e+00 -2.100000000000e+01
9.055808627670e+00 0.000000000000e+00 -2.000000000000e+01
8.547635293055e+00 0.000000000000e+00 -2.100000000000e+01
8.547635293055e+00 0.000000000000e+00 -2.000000000000e+01
8.062089279933e+00 0.000000000000e+00 -2.100000000000e+01
8.062089279933e+00 0.000000000000e+00 -2.000000000000e+01
7.598163066571e+00 0.000000000000e+00 -2.100000000000e+01
7.598163066571e+00 0.000000000000e+00 -2.000000000000e+01
7.154893992937e+00 0.000000000000e+00 -2.100000000000e+01
7.154893992937e+00 0.000000000000e+00 -2.000000000000e+01
6.731362263145e+00 0.000000000000e+00 -2.100000000000e+01
6.731362263145e+00 0.000000000000e+00 -2.000000000000e+01
6.326689036858e+00 0.000000000000e+00 -2.100000000000e+01
6.326689036858e+00 0.000000000000e+00 -2.000000000000e+01
5.940034605670e+00 0.000000000000e+00 -2.100000000000e+01
5.940034605670e+00 0.000000000000e+00 -2.000000000000e+01
5.570596650682e+00 0.000000000000e+00 -2.100000000000e+01
5.570596650682e+00 0.000000000000e+00 -2.000000000000e+01
5.217608577672e+00 0.000000000000e+00 -2.100000000000e+01
5.217608577672e+00 0.000000000000e+00 -2.000000000000e+01
4.880337926390e+00 0.000000000000e+00 -2.100000000000e+01
4.880337926390e+00 0.000000000000e+00 -2.000000000000e+01
4.558084850681e+00 0.000000000000e+00 -2.100000000000e+01
4.558084850681e+00 0.000000000000e+00 -2.000000000000e+01
4.250180666284e+00 0.000000000000e+00 -2.100000000000e+01
4.250180666284e+00 0.000000000000e+00 -2.000000000000e+01
3.955986463295e+00 0.000000000000e+00 -2.100000000000e+01
3.955986463295e+00 0.000000000000e+00 -2.000000000000e+01
3.674891780407e+00 0.000000000000e+00 -2.100000000000e+01
3.674891780407e+00 0.000000000000e+00 -2.000000000000e+01
3.406313338193e+00 0.000000000000e+00 -2.100000000000e+01
3.406313338193e+00 0.000000000000e+00 -2.000000000000e+01
3.149693828776e+00 0.000000000000e+00 -2.100000000000e+01
3.149693828776e+00 0.000000000000e+00 -2.000000000000e+01
2.904500759404e+00 0.000000000000e+00 -2.100000000000e+01
2.904500759404e+00 0.000000000000e+00 -2.000000000000e+01
2.670225347514e+00 0.000000000000e+00 -2.100000000000e+01
2.670225347514e+00 0.000000000000e+00 -2.000000000000e+01
2.446381464989e+00 0.000000000000e+00 -2.100000000000e+01
[...]
POINT_DATA 2478
SCALARS PRESSURE1 double 1
LOOKUP_TABLE default
3.080552450563e+05
3.178652450563e+05
3.166178112117e+05
3.068078112117e+05
3.276752450563e+05
3.264278112117e+05
3.374852450563e+05
3.362378112117e+05
3.472952450563e+05
3.460478112117e+05
3.571052450563e+05
3.558578112117e+05
3.669152450563e+05
3.656678112117e+05
3.767252450563e+05
3.754778112117e+05
3.865352450563e+05
3.852878112117e+05
3.963452450563e+05
3.950978112117e+05
4.061552450563e+05
4.049078112117e+05
4.159652450563e+05
4.147178112117e+05
4.257752450563e+05
4.245278112117e+05
4.355852450563e+05
4.343378112117e+05
4.453952450563e+05
4.441478112117e+05
4.552052450563e+05
4.539578112117e+05
4.650152450563e+05
4.637678112117e+05
4.748252450563e+05
4.735778112117e+05
4.846352450563e+05
4.833878112117e+05
4.944452450563e+05
4.931978112117e+05
5.042552450563e+05
5.030078112117e+05
3.153703773670e+05
3.055603773670e+05
3.251803773670e+05
3.349903773670e+05
3.448003773670e+05
3.546103773670e+05
3.644203773670e+05
3.742303773670e+05
3.840403773670e+05
3.938503773670e+05
4.036603773670e+05
4.134703773670e+05
4.232803773670e+05
4.330903773670e+05
4.429003773670e+05
4.527103773670e+05
4.625203773670e+05
4.723303773670e+05
4.821403773670e+05
4.919503773670e+05
5.017603773670e+05
3.146219170602e+05
3.048119170602e+05
3.244319170602e+05
3.342419170602e+05
3.440519170602e+05
3.538619170602e+05
3.636719170602e+05
3.734819170602e+05
3.832919170602e+05
3.931019170602e+05
4.029119170602e+05
4.127219170602e+05
4.225319170602e+05
4.323419170602e+05
4.421519170602e+05
4.519619170602e+05
4.617719170602e+05
4.715819170602e+05
4.813919170602e+05
4.912019170602e+05
5.010119170602e+05
3.060100000000e+05
2.962000000000e+05
3.061020321848e+05
2.962920321848e+05
3.061944088466e+05
2.963844088466e+05
3.062871488113e+05
2.964771488113e+05
3.063802720828e+05
2.965702720828e+05
3.064737999318e+05
2.966637999318e+05
3.065677549947e+05
2.967577549947e+05
3.066621613804e+05
2.968521613804e+05
3.067570447884e+05
2.969470447884e+05
3.068524326393e+05
2.970424326393e+05
3.069483542176e+05
2.971383542176e+05
3.070448408303e+05
2.972348408303e+05
3.071419259828e+05
2.973319259828e+05
3.072396455729e+05
2.974296455729e+05
3.073380381084e+05
2.975280381084e+05
3.074371449483e+05
2.976271449483e+05
3.075370105729e+05
2.977270105729e+05
3.076376828873e+05
2.978276828873e+05
3.077392135613e+05
2.979292135613e+05
3.078416584135e+05
2.980316584135e+05
3.079450778449e+05
2.981350778449e+05
3.080495373316e+05
2.982395373316e+05
3.081551079843e+05
2.983451079843e+05
3.082618671882e+05
2.984518671882e+05
3.083698993357e+05
2.985598993357e+05
3.084792966699e+05
2.986692966699e+05
3.085901602589e+05
2.987801602589e+05
3.087026011264e+05
2.988926011264e+05
3.088167415695e+05
2.990067415695e+05
3.089327167024e+05
2.991227167024e+05
3.090506762745e+05
2.992406762745e+05
3.091707868223e+05
2.993607868223e+05
3.092932342340e+05
2.994832342340e+05
3.094182268228e+05
2.996082268228e+05
3.095459990373e+05
2.997359990373e+05
3.096768159728e+05
2.998668159728e+05
3.098109789017e+05
3.000009789017e+05
3.099488321119e+05
3.001388321119e+05
3.100907714428e+05
3.002807714428e+05
3.102372550508e+05
3.004272550508e+05
3.103888171432e+05
3.005788171432e+05
3.105460857186e+05
3.007360857186e+05
3.107098058041e+05
3.008998058041e+05
3.108808703681e+05
3.010708703681e+05
3.110603621669e+05
3.012503621669e+05
3.112496115185e+05
3.014396115185e+05
3.114502778796e+05
3.016402778796e+05
3.116644680480e+05
3.018544680480e+05
3.118949126732e+05
3.020849126732e+05
3.121452393672e+05
3.023352393672e+05
3.124204136540e+05
3.026104136540e+05
3.127274888755e+05
3.029174888756e+05
3.130769671608e+05
3.032669671608e+05
3.134854853021e+05
3.036754853022e+05
3.139817475147e+05
3.041717475148e+05
3.158200000000e+05
3.159120321848e+05
3.160044088466e+05
3.160971488113e+05
3.161902720828e+05
3.162837999318e+05
3.163777549947e+05
3.164721613804e+05
3.165670447884e+05
3.166624326393e+05
3.167583542176e+05
3.168548408303e+05
3.169519259828e+05
3.170496455729e+05
3.171480381084e+05
3.172471449483e+05
3.173470105729e+05
3.174476828873e+05
3.175492135613e+05
3.176516584135e+05
3.177550778449e+05
3.178595373316e+05
3.179651079843e+05
3.180718671882e+05
3.181798993357e+05
3.182892966699e+05
3.184001602589e+05
3.185126011264e+05
3.186267415695e+05
3.187427167024e+05
3.188606762745e+05
3.189807868223e+05
3.191032342340e+05
3.192282268228e+05
3.193559990373e+05
3.194868159728e+05
3.196209789017e+05
3.197588321119e+05
3.199007714428e+05
3.200472550508e+05
3.201988171432e+05
3.203560857186e+05
3.205198058041e+05
3.206908703681e+05
3.208703621668e+05
3.210596115185e+05
3.212602778796e+05
3.214744680480e+05
3.217049126732e+05
3.219552393672e+05
3.222304136540e+05
3.225374888755e+05
3.228869671608e+05
3.232954853021e+05
3.237917475147e+05
3.256300000000e+05
3.257220321848e+05
3.258144088466e+05
3.259071488113e+05
3.260002720828e+05
3.260937999318e+05
3.261877549947e+05
3.262821613804e+05
3.263770447884e+05
3.264724326393e+05
3.265683542176e+05
3.266648408303e+05
3.267619259828e+05
3.268596455729e+05
3.269580381084e+05
3.270571449483e+05
3.271570105729e+05
3.272576828873e+05
3.273592135613e+05
3.274616584135e+05
3.275650778449e+05
3.276695373316e+05
3.277751079843e+05
3.278818671882e+05
3.279898993357e+05
3.280992966699e+05
3.282101602589e+05
3.283226011264e+05
3.284367415695e+05
3.285527167024e+05
3.286706762745e+05
3.287907868223e+05
3.289132342340e+05
3.290382268228e+05
3.291659990373e+05
3.292968159728e+05
3.294309789017e+05
3.295688321119e+05
3.297107714428e+05
3.298572550508e+05
3.300088171432e+05
3.301660857186e+05
3.303298058041e+05
3.305008703681e+05
3.306803621668e+05
3.308696115185e+05
3.310702778796e+05
3.312844680480e+05
3.315149126732e+05
3.317652393672e+05
3.320404136540e+05
3.323474888755e+05
3.326969671608e+05
3.331054853021e+05
3.336017475147e+05
3.354400000000e+05
3.355320321848e+05
3.356244088466e+05
3.357171488113e+05
3.358102720828e+05
3.359037999318e+05
3.359977549947e+05
3.360921613804e+05
3.361870447884e+05
3.362824326393e+05
3.363783542176e+05
3.364748408303e+05
3.365719259828e+05
3.366696455729e+05
3.367680381084e+05
3.368671449483e+05
3.369670105729e+05
3.370676828873e+05
3.371692135613e+05
3.372716584135e+05
3.373750778449e+05
3.374795373316e+05
3.375851079843e+05
3.376918671882e+05
3.377998993357e+05
3.379092966699e+05
3.380201602589e+05
3.381326011264e+05
3.382467415695e+05
3.383627167024e+05
3.384806762745e+05
3.386007868223e+05
3.387232342340e+05
3.388482268228e+05
3.389759990373e+05
3.391068159728e+05
3.392409789017e+05
3.393788321119e+05
3.395207714428e+05
3.396672550508e+05
3.398188171432e+05
3.399760857186e+05
3.401398058041e+05
3.403108703681e+05
3.404903621668e+05
3.406796115185e+05
3.408802778796e+05
3.410944680480e+05
3.413249126732e+05
3.415752393672e+05
3.418504136540e+05
3.421574888755e+05
3.425069671608e+05
3.429154853021e+05
3.434117475148e+05
3.452500000000e+05
3.453420321848e+05
3.454344088466e+05
3.455271488113e+05
3.456202720828e+05
3.457137999318e+05
3.458077549947e+05
3.459021613804e+05
3.459970447884e+05
3.460924326393e+05
3.461883542176e+05
3.462848408303e+05
3.463819259828e+05
3.464796455729e+05
3.465780381084e+05
3.466771449483e+05
3.467770105729e+05
3.468776828873e+05
3.469792135613e+05
3.470816584135e+05
3.471850778449e+05
3.472895373316e+05
3.473951079843e+05
3.475018671882e+05
3.476098993357e+05
3.477192966699e+05
3.478301602589e+05
3.479426011264e+05
3.480567415695e+05
3.481727167024e+05
3.482906762745e+05
3.484107868223e+05
3.485332342340e+05
3.486582268228e+05
3.487859990373e+05
3.489168159728e+05
3.490509789017e+05
3.491888321119e+05
3.493307714428e+05
3.494772550508e+05
3.496288171432e+05
3.497860857186e+05
3.499498058041e+05
3.501208703681e+05
3.503003621669e+05
3.504896115185e+05
3.506902778796e+05
3.509044680480e+05
3.511349126732e+05
3.513852393672e+05
3.516604136540e+05
3.519674888755e+05
3.523169671608e+05
3.527254853021e+05
3.532217475148e+05
3.550600000000e+05
3.551520321848e+05
3.552444088466e+05
3.553371488113e+05
3.554302720828e+05
3.555237999318e+05
3.556177549947e+05
3.557121613804e+05
3.558070447884e+05
3.559024326393e+05
3.559983542176e+05
3.560948408303e+05
3.561919259828e+05
3.562896455729e+05
3.563880381084e+05
3.564871449483e+05
3.565870105729e+05
3.566876828873e+05
3.567892135613e+05
3.568916584135e+05
3.569950778449e+05
3.570995373316e+05
3.572051079843e+05
3.573118671882e+05
3.574198993357e+05
3.575292966699e+05
3.576401602589e+05
3.577526011264e+05
3.578667415695e+05
3.579827167024e+05
3.581006762745e+05
3.582207868223e+05
3.583432342340e+05
3.584682268228e+05
3.585959990373e+05
3.587268159728e+05
3.588609789017e+05
3.589988321119e+05
3.591407714428e+05
3.592872550508e+05
3.594388171432e+05
3.595960857186e+05
3.597598058041e+05
3.599308703681e+05
3.601103621669e+05
3.602996115185e+05
3.605002778796e+05
3.607144680480e+05
3.609449126732e+05
3.611952393672e+05
3.614704136540e+05
3.617774888756e+05
3.621269671608e+05
3.625354853022e+05
3.630317475148e+05
3.648700000000e+05
3.649620321848e+05
3.650544088466e+05
3.651471488113e+05
3.652402720828e+05
3.653337999318e+05
3.654277549947e+05
3.655221613804e+05
3.656170447884e+05
3.657124326393e+05
3.658083542176e+05
3.659048408303e+05
3.660019259828e+05
3.660996455729e+05
3.661980381084e+05
3.662971449483e+05
3.663970105729e+05
3.664976828873e+05
3.665992135613e+05
3.667016584135e+05
3.668050778449e+05
3.669095373316e+05
3.670151079843e+05
3.671218671882e+05
3.672298993357e+05
3.673392966699e+05
3.674501602589e+05
3.675626011264e+05
3.676767415695e+05
3.677927167024e+05
3.679106762745e+05
3.680307868223e+05
3.681532342340e+05
3.682782268228e+05
3.684059990373e+05
3.685368159728e+05
3.686709789017e+05
3.688088321119e+05
3.689507714428e+05
3.690972550508e+05
3.692488171432e+05
3.694060857186e+05
3.695698058041e+05
3.697408703681e+05
3.699203621669e+05
3.701096115185e+05
3.703102778796e+05
3.705244680480e+05
3.707549126732e+05
3.710052393673e+05
3.712804136540e+05
3.715874888756e+05
3.719369671608e+05
3.723454853022e+05
3.728417475148e+05
3.746800000000e+05
3.747720321848e+05
3.748644088466e+05
3.749571488113e+05
3.750502720828e+05
3.751437999318e+05
3.752377549947e+05
3.753321613804e+05
3.754270447884e+05
3.755224326393e+05
3.756183542176e+05
3.757148408303e+05
3.758119259828e+05
3.759096455729e+05
3.760080381084e+05
3.761071449483e+05
3.762070105729e+05
3.763076828873e+05
3.764092135613e+05
3.765116584135e+05
3.766150778449e+05
3.767195373316e+05
3.768251079843e+05
3.769318671882e+05
3.770398993357e+05
3.771492966699e+05
3.772601602589e+05
3.773726011264e+05
3.774867415695e+05
3.776027167024e+05
3.777206762745e+05
3.778407868223e+05
3.779632342340e+05
3.780882268228e+05
3.782159990373e+05
3.783468159728e+05
3.784809789017e+05
3.786188321119e+05
3.787607714428e+05
3.789072550508e+05
3.790588171432e+05
3.792160857186e+05
3.793798058041e+05
3.795508703681e+05
3.797303621669e+05
3.799196115185e+05
3.801202778796e+05
3.803344680480e+05
3.805649126732e+05
3.808152393673e+05
3.810904136540e+05
3.813974888756e+05
3.817469671608e+05
3.821554853022e+05
3.826517475148e+05
3.844900000000e+05
3.845820321848e+05
3.846744088466e+05
3.847671488113e+05
3.848602720828e+05
3.849537999318e+05
3.850477549947e+05
3.851421613804e+05
3.852370447884e+05
3.853324326393e+05
3.854283542176e+05
3.855248408303e+05
3.856219259828e+05
3.857196455729e+05
3.858180381084e+05
3.859171449483e+05
3.860170105729e+05
3.861176828873e+05
3.862192135613e+05
3.863216584135e+05
3.864250778449e+05
3.865295373316e+05
3.866351079843e+05
3.867418671882e+05
3.868498993357e+05
3.869592966699e+05
3.870701602589e+05
3.871826011264e+05
3.872967415695e+05
3.874127167024e+05
3.875306762745e+05
3.876507868223e+05
3.877732342340e+05
3.878982268228e+05
3.880259990373e+05
3.881568159728e+05
3.882909789017e+05
3.884288321119e+05
3.885707714428e+05
3.887172550508e+05
3.888688171432e+05
3.890260857186e+05
3.891898058041e+05
3.893608703681e+05
3.895403621669e+05
3.897296115185e+05
3.899302778796e+05
3.901444680480e+05
3.903749126732e+05
3.906252393673e+05
3.909004136540e+05
3.912074888756e+05
3.915569671608e+05
3.919654853022e+05
3.924617475148e+05
3.943000000000e+05
3.943920321848e+05
3.944844088466e+05
3.945771488113e+05
3.946702720828e+05
3.947637999318e+05
3.948577549947e+05
3.949521613804e+05
3.950470447884e+05
3.951424326393e+05
3.952383542176e+05
3.953348408303e+05
3.954319259828e+05
3.955296455729e+05
3.956280381084e+05
3.957271449483e+05
3.958270105729e+05
3.959276828873e+05
3.960292135613e+05
3.961316584135e+05
3.962350778449e+05
3.963395373316e+05
3.964451079843e+05
3.965518671882e+05
3.966598993357e+05
3.967692966699e+05
3.968801602589e+05
3.969926011264e+05
3.971067415695e+05
3.972227167024e+05
3.973406762745e+05
3.974607868223e+05
3.975832342340e+05
3.977082268228e+05
3.978359990373e+05
3.979668159728e+05
3.981009789017e+05
3.982388321119e+05
3.983807714428e+05
3.985272550508e+05
3.986788171432e+05
3.988360857186e+05
3.989998058041e+05
3.991708703681e+05
3.993503621669e+05
3.995396115185e+05
3.997402778796e+05
3.999544680480e+05
4.001849126732e+05
4.004352393673e+05
4.007104136540e+05
4.010174888756e+05
4.013669671608e+05
4.017754853022e+05
4.022717475148e+05
4.041100000000e+05
4.042020321848e+05
4.042944088466e+05
4.043871488113e+05
4.044802720828e+05
4.045737999318e+05
4.046677549947e+05
4.047621613804e+05
4.048570447884e+05
4.049524326393e+05
4.050483542176e+05
4.051448408303e+05
4.052419259828e+05
4.053396455729e+05
4.054380381084e+05
4.055371449483e+05
4.056370105729e+05
4.057376828873e+05
4.058392135613e+05
4.059416584135e+05
4.060450778449e+05
4.061495373316e+05
4.062551079843e+05
4.063618671882e+05
4.064698993357e+05
4.065792966699e+05
4.066901602589e+05
4.068026011264e+05
4.069167415695e+05
4.070327167024e+05
4.071506762745e+05
4.072707868223e+05
4.073932342340e+05
4.075182268228e+05
4.076459990373e+05
4.077768159728e+05
4.079109789017e+05
4.080488321119e+05
4.081907714428e+05
4.083372550508e+05
4.084888171432e+05
4.086460857186e+05
4.088098058041e+05
4.089808703681e+05
4.091603621669e+05
4.093496115185e+05
4.095502778796e+05
4.097644680480e+05
4.099949126732e+05
4.102452393673e+05
4.105204136540e+05
4.108274888756e+05
4.111769671608e+05
4.115854853022e+05
4.120817475148e+05
4.139200000000e+05
4.140120321848e+05
4.141044088466e+05
4.141971488113e+05
4.142902720828e+05
4.143837999318e+05
4.144777549947e+05
4.145721613804e+05
4.146670447884e+05
4.147624326393e+05
4.148583542176e+05
4.149548408303e+05
4.150519259828e+05
4.151496455729e+05
4.152480381084e+05
4.153471449483e+05
4.154470105729e+05
4.155476828873e+05
4.156492135613e+05
4.157516584135e+05
4.158550778449e+05
4.159595373316e+05
4.160651079843e+05
4.161718671882e+05
4.162798993357e+05
4.163892966699e+05
4.165001602589e+05
4.166126011264e+05
4.167267415695e+05
4.168427167024e+05
4.169606762745e+05
4.170807868223e+05
4.172032342340e+05
4.173282268228e+05
4.174559990373e+05
4.175868159728e+05
4.177209789017e+05
4.178588321119e+05
4.180007714428e+05
4.181472550508e+05
4.182988171432e+05
4.184560857186e+05
4.186198058041e+05
4.187908703681e+05
4.189703621669e+05
4.191596115185e+05
4.193602778796e+05
4.195744680480e+05
4.198049126732e+05
4.200552393673e+05
4.203304136540e+05
4.206374888756e+05
4.209869671608e+05
4.213954853022e+05
4.218917475148e+05
4.237300000000e+05
4.238220321848e+05
4.239144088466e+05
4.240071488113e+05
4.241002720828e+05
4.241937999318e+05
4.242877549947e+05
4.243821613804e+05
4.244770447884e+05
4.245724326393e+05
4.246683542176e+05
4.247648408303e+05
4.248619259828e+05
4.249596455729e+05
4.250580381084e+05
4.251571449483e+05
4.252570105729e+05
4.253576828873e+05
4.254592135613e+05
4.255616584135e+05
4.256650778449e+05
4.257695373316e+05
4.258751079843e+05
4.259818671882e+05
4.260898993357e+05
4.261992966699e+05
4.263101602589e+05
4.264226011264e+05
4.265367415695e+05
4.266527167024e+05
4.267706762745e+05
4.268907868223e+05
4.270132342340e+05
4.271382268228e+05
4.272659990373e+05
4.273968159728e+05
4.275309789017e+05
4.276688321119e+05
4.278107714428e+05
4.279572550508e+05
4.281088171432e+05
4.282660857186e+05
4.284298058041e+05
4.286008703681e+05
4.287803621669e+05
4.289696115185e+05
4.291702778796e+05
4.293844680480e+05
4.296149126732e+05
4.298652393673e+05
4.301404136540e+05
4.304474888756e+05
4.307969671608e+05
4.312054853022e+05
4.317017475148e+05
4.335400000000e+05
4.336320321848e+05
4.337244088466e+05
4.338171488113e+05
4.339102720828e+05
4.340037999318e+05
4.340977549947e+05
4.341921613804e+05
4.342870447884e+05
4.343824326393e+05
4.344783542176e+05
4.345748408303e+05
4.346719259828e+05
4.347696455729e+05
4.348680381084e+05
4.349671449483e+05
4.350670105729e+05
4.351676828873e+05
4.352692135613e+05
4.353716584135e+05
4.354750778449e+05
4.355795373316e+05
4.356851079843e+05
4.357918671882e+05
4.358998993357e+05
4.360092966699e+05
4.361201602589e+05
4.362326011264e+05
4.363467415695e+05
4.364627167024e+05
4.365806762745e+05
4.367007868223e+05
4.368232342340e+05
4.369482268228e+05
4.370759990373e+05
4.372068159728e+05
4.373409789017e+05
4.374788321119e+05
4.376207714428e+05
4.377672550508e+05
4.379188171432e+05
4.380760857186e+05
4.382398058041e+05
4.384108703681e+05
4.385903621669e+05
4.387796115185e+05
4.389802778796e+05
4.391944680480e+05
4.394249126732e+05
4.396752393672e+05
4.399504136540e+05
4.402574888756e+05
4.406069671608e+05
4.410154853022e+05
4.415117475148e+05
4.433500000000e+05
4.434420321848e+05
4.435344088466e+05
4.436271488113e+05
4.437202720828e+05
4.438137999318e+05
4.439077549947e+05
4.440021613804e+05
4.440970447884e+05
4.441924326393e+05
4.442883542176e+05
4.443848408303e+05
4.444819259828e+05
4.445796455729e+05
4.446780381084e+05
4.447771449483e+05
4.448770105729e+05
4.449776828873e+05
4.450792135613e+05
4.451816584135e+05
4.452850778449e+05
4.453895373316e+05
4.454951079843e+05
4.456018671882e+05
4.457098993357e+05
4.458192966699e+05
4.459301602589e+05
4.460426011264e+05
4.461567415695e+05
4.462727167024e+05
4.463906762745e+05
4.465107868223e+05
4.466332342340e+05
4.467582268228e+05
4.468859990373e+05
4.470168159728e+05
4.471509789017e+05
4.472888321119e+05
4.474307714428e+05
4.475772550508e+05
4.477288171432e+05
4.478860857186e+05
4.480498058041e+05
4.482208703681e+05
4.484003621669e+05
4.485896115185e+05
4.487902778796e+05
4.490044680480e+05
4.492349126732e+05
4.494852393672e+05
4.497604136540e+05
4.500674888755e+05
4.504169671608e+05
4.508254853021e+05
4.513217475148e+05
4.531600000000e+05
4.532520321848e+05
4.533444088466e+05
4.534371488113e+05
4.535302720828e+05
4.536237999318e+05
4.537177549947e+05
4.538121613804e+05
4.539070447884e+05
4.540024326393e+05
4.540983542176e+05
4.541948408303e+05
4.542919259828e+05
4.543896455729e+05
4.544880381084e+05
4.545871449483e+05
4.546870105729e+05
4.547876828873e+05
4.548892135613e+05
4.549916584135e+05
4.550950778449e+05
4.551995373316e+05
4.553051079843e+05
4.554118671882e+05
4.555198993357e+05
4.556292966699e+05
4.557401602589e+05
4.558526011264e+05
4.559667415695e+05
4.560827167024e+05
4.562006762745e+05
4.563207868223e+05
4.564432342340e+05
4.565682268228e+05
4.566959990373e+05
4.568268159728e+05
4.569609789017e+05
4.570988321119e+05
4.572407714428e+05
4.573872550508e+05
4.575388171432e+05
4.576960857186e+05
4.578598058041e+05
4.580308703681e+05
4.582103621668e+05
4.583996115185e+05
4.586002778796e+05
4.588144680480e+05
4.590449126732e+05
4.592952393672e+05
4.595704136540e+05
4.598774888755e+05
4.602269671608e+05
4.606354853021e+05
4.611317475148e+05
4.629700000000e+05
4.630620321848e+05
4.631544088466e+05
4.632471488113e+05
4.633402720828e+05
4.634337999318e+05
4.635277549947e+05
4.636221613804e+05
4.637170447884e+05
4.638124326393e+05
4.639083542176e+05
4.640048408303e+05
4.641019259828e+05
4.641996455729e+05
4.642980381084e+05
4.643971449483e+05
4.644970105729e+05
4.645976828873e+05
4.646992135613e+05
4.648016584135e+05
4.649050778449e+05
4.650095373316e+05
4.651151079843e+05
4.652218671882e+05
4.653298993357e+05
4.654392966699e+05
4.655501602589e+05
4.656626011264e+05
4.657767415695e+05
4.658927167024e+05