# vtk DataFile Version 3.0
Unstructured Grid from OpenGeoSys
ASCII
DATASET UNSTRUCTURED_GRID
FIELD TimesAndCycles 2
TIME 1 1 double
8.640000000000e+04
CYLCE 1 1 long
1
POINTS 2478 double
5.000000000000e-02 0.000000000000e+00 -2.000000000000e+01
5.000000000000e-02 0.000000000000e+00 -2.100000000000e+01
1.000000000000e-01 0.000000000000e+00 -2.100000000000e+01
1.000000000000e-01 0.000000000000e+00 -2.000000000000e+01
5.000000000000e-02 0.000000000000e+00 -2.200000000000e+01
1.000000000000e-01 0.000000000000e+00 -2.200000000000e+01
5.000000000000e-02 0.000000000000e+00 -2.300000000000e+01
1.000000000000e-01 0.000000000000e+00 -2.300000000000e+01
5.000000000000e-02 0.000000000000e+00 -2.400000000000e+01
1.000000000000e-01 0.000000000000e+00 -2.400000000000e+01
5.000000000000e-02 0.000000000000e+00 -2.500000000000e+01
1.000000000000e-01 0.000000000000e+00 -2.500000000000e+01
5.000000000000e-02 0.000000000000e+00 -2.600000000000e+01
1.000000000000e-01 0.000000000000e+00 -2.600000000000e+01
5.000000000000e-02 0.000000000000e+00 -2.700000000000e+01
1.000000000000e-01 0.000000000000e+00 -2.700000000000e+01
5.000000000000e-02 0.000000000000e+00 -2.800000000000e+01
1.000000000000e-01 0.000000000000e+00 -2.800000000000e+01
5.000000000000e-02 0.000000000000e+00 -2.900000000000e+01
1.000000000000e-01 0.000000000000e+00 -2.900000000000e+01
5.000000000000e-02 0.000000000000e+00 -3.000000000000e+01
1.000000000000e-01 0.000000000000e+00 -3.000000000000e+01
5.000000000000e-02 0.000000000000e+00 -3.100000000000e+01
1.000000000000e-01 0.000000000000e+00 -3.100000000000e+01
5.000000000000e-02 0.000000000000e+00 -3.200000000000e+01
1.000000000000e-01 0.000000000000e+00 -3.200000000000e+01
5.000000000000e-02 0.000000000000e+00 -3.300000000000e+01
1.000000000000e-01 0.000000000000e+00 -3.300000000000e+01
5.000000000000e-02 0.000000000000e+00 -3.400000000000e+01
1.000000000000e-01 0.000000000000e+00 -3.400000000000e+01
5.000000000000e-02 0.000000000000e+00 -3.500000000000e+01
1.000000000000e-01 0.000000000000e+00 -3.500000000000e+01
5.000000000000e-02 0.000000000000e+00 -3.600000000000e+01
1.000000000000e-01 0.000000000000e+00 -3.600000000000e+01
5.000000000000e-02 0.000000000000e+00 -3.700000000000e+01
1.000000000000e-01 0.000000000000e+00 -3.700000000000e+01
5.000000000000e-02 0.000000000000e+00 -3.800000000000e+01
1.000000000000e-01 0.000000000000e+00 -3.800000000000e+01
5.000000000000e-02 0.000000000000e+00 -3.900000000000e+01
1.000000000000e-01 0.000000000000e+00 -3.900000000000e+01
5.000000000000e-02 0.000000000000e+00 -4.000000000000e+01
1.000000000000e-01 0.000000000000e+00 -4.000000000000e+01
2.000000000000e-01 0.000000000000e+00 -2.100000000000e+01
2.000000000000e-01 0.000000000000e+00 -2.000000000000e+01
2.000000000000e-01 0.000000000000e+00 -2.200000000000e+01
2.000000000000e-01 0.000000000000e+00 -2.300000000000e+01
2.000000000000e-01 0.000000000000e+00 -2.400000000000e+01
2.000000000000e-01 0.000000000000e+00 -2.500000000000e+01
2.000000000000e-01 0.000000000000e+00 -2.600000000000e+01
2.000000000000e-01 0.000000000000e+00 -2.700000000000e+01
2.000000000000e-01 0.000000000000e+00 -2.800000000000e+01
2.000000000000e-01 0.000000000000e+00 -2.900000000000e+01
2.000000000000e-01 0.000000000000e+00 -3.000000000000e+01
2.000000000000e-01 0.000000000000e+00 -3.100000000000e+01
2.000000000000e-01 0.000000000000e+00 -3.200000000000e+01
2.000000000000e-01 0.000000000000e+00 -3.300000000000e+01
2.000000000000e-01 0.000000000000e+00 -3.400000000000e+01
2.000000000000e-01 0.000000000000e+00 -3.500000000000e+01
2.000000000000e-01 0.000000000000e+00 -3.600000000000e+01
2.000000000000e-01 0.000000000000e+00 -3.700000000000e+01
2.000000000000e-01 0.000000000000e+00 -3.800000000000e+01
2.000000000000e-01 0.000000000000e+00 -3.900000000000e+01
2.000000000000e-01 0.000000000000e+00 -4.000000000000e+01
3.000000000000e-01 0.000000000000e+00 -2.100000000000e+01
3.000000000000e-01 0.000000000000e+00 -2.000000000000e+01
3.000000000000e-01 0.000000000000e+00 -2.200000000000e+01
3.000000000000e-01 0.000000000000e+00 -2.300000000000e+01
3.000000000000e-01 0.000000000000e+00 -2.400000000000e+01
3.000000000000e-01 0.000000000000e+00 -2.500000000000e+01
3.000000000000e-01 0.000000000000e+00 -2.600000000000e+01
3.000000000000e-01 0.000000000000e+00 -2.700000000000e+01
3.000000000000e-01 0.000000000000e+00 -2.800000000000e+01
3.000000000000e-01 0.000000000000e+00 -2.900000000000e+01
3.000000000000e-01 0.000000000000e+00 -3.000000000000e+01
3.000000000000e-01 0.000000000000e+00 -3.100000000000e+01
3.000000000000e-01 0.000000000000e+00 -3.200000000000e+01
3.000000000000e-01 0.000000000000e+00 -3.300000000000e+01
3.000000000000e-01 0.000000000000e+00 -3.400000000000e+01
3.000000000000e-01 0.000000000000e+00 -3.500000000000e+01
3.000000000000e-01 0.000000000000e+00 -3.600000000000e+01
3.000000000000e-01 0.000000000000e+00 -3.700000000000e+01
3.000000000000e-01 0.000000000000e+00 -3.800000000000e+01
3.000000000000e-01 0.000000000000e+00 -3.900000000000e+01
3.000000000000e-01 0.000000000000e+00 -4.000000000000e+01
3.017908699421e+01 0.000000000000e+00 -2.100000000000e+01
3.017908699421e+01 0.000000000000e+00 -2.000000000000e+01
2.873036212330e+01 0.000000000000e+00 -2.100000000000e+01
2.873036212330e+01 0.000000000000e+00 -2.000000000000e+01
2.734614430377e+01 0.000000000000e+00 -2.100000000000e+01
2.734614430377e+01 0.000000000000e+00 -2.000000000000e+01
2.602356124444e+01 0.000000000000e+00 -2.100000000000e+01
2.602356124444e+01 0.000000000000e+00 -2.000000000000e+01
2.475986854800e+01 0.000000000000e+00 -2.100000000000e+01
2.475986854800e+01 0.000000000000e+00 -2.000000000000e+01
2.355244401630e+01 0.000000000000e+00 -2.100000000000e+01
2.355244401630e+01 0.000000000000e+00 -2.000000000000e+01
2.239878220923e+01 0.000000000000e+00 -2.100000000000e+01
2.239878220923e+01 0.000000000000e+00 -2.000000000000e+01
2.129648924588e+01 0.000000000000e+00 -2.100000000000e+01
2.129648924588e+01 0.000000000000e+00 -2.000000000000e+01
2.024327783711e+01 0.000000000000e+00 -2.100000000000e+01
2.024327783711e+01 0.000000000000e+00 -2.000000000000e+01
1.923696253941e+01 0.000000000000e+00 -2.100000000000e+01
1.923696253941e+01 0.000000000000e+00 -2.000000000000e+01
1.827545522004e+01 0.000000000000e+00 -2.100000000000e+01
1.827545522004e+01 0.000000000000e+00 -2.000000000000e+01
1.735676072407e+01 0.000000000000e+00 -2.100000000000e+01
1.735676072407e+01 0.000000000000e+00 -2.000000000000e+01
1.647897273441e+01 0.000000000000e+00 -2.100000000000e+01
1.647897273441e+01 0.000000000000e+00 -2.000000000000e+01
1.564026981610e+01 0.000000000000e+00 -2.100000000000e+01
1.564026981610e+01 0.000000000000e+00 -2.000000000000e+01
1.483891163683e+01 0.000000000000e+00 -2.100000000000e+01
1.483891163683e+01 0.000000000000e+00 -2.000000000000e+01
1.407323535568e+01 0.000000000000e+00 -2.100000000000e+01
1.407323535568e+01 0.000000000000e+00 -2.000000000000e+01
1.334165217268e+01 0.000000000000e+00 -2.100000000000e+01
1.334165217268e+01 0.000000000000e+00 -2.000000000000e+01
1.264264403200e+01 0.000000000000e+00 -2.100000000000e+01
1.264264403200e+01 0.000000000000e+00 -2.000000000000e+01
1.197476047194e+01 0.000000000000e+00 -2.100000000000e+01
1.197476047194e+01 0.000000000000e+00 -2.000000000000e+01
1.133661561520e+01 0.000000000000e+00 -2.100000000000e+01
1.133661561520e+01 0.000000000000e+00 -2.000000000000e+01
1.072688529313e+01 0.000000000000e+00 -2.100000000000e+01
1.072688529313e+01 0.000000000000e+00 -2.000000000000e+01
1.014430429803e+01 0.000000000000e+00 -2.100000000000e+01
1.014430429803e+01 0.000000000000e+00 -2.000000000000e+01
9.587663757842e+00 0.000000000000e+00 -2.100000000000e+01
9.587663757842e+00 0.000000000000e+00 -2.000000000000e+01
9.055808627670e+00 0.000000000000e+00 -2.100000000000e+01
9.055808627670e+00 0.000000000000e+00 -2.000000000000e+01
8.547635293055e+00 0.000000000000e+00 -2.100000000000e+01
8.547635293055e+00 0.000000000000e+00 -2.000000000000e+01
8.062089279933e+00 0.000000000000e+00 -2.100000000000e+01
8.062089279933e+00 0.000000000000e+00 -2.000000000000e+01
7.598163066571e+00 0.000000000000e+00 -2.100000000000e+01
7.598163066571e+00 0.000000000000e+00 -2.000000000000e+01
7.154893992937e+00 0.000000000000e+00 -2.100000000000e+01
7.154893992937e+00 0.000000000000e+00 -2.000000000000e+01
6.731362263145e+00 0.000000000000e+00 -2.100000000000e+01
6.731362263145e+00 0.000000000000e+00 -2.000000000000e+01
6.326689036858e+00 0.000000000000e+00 -2.100000000000e+01
6.326689036858e+00 0.000000000000e+00 -2.000000000000e+01
5.940034605670e+00 0.000000000000e+00 -2.100000000000e+01
5.940034605670e+00 0.000000000000e+00 -2.000000000000e+01
5.570596650682e+00 0.000000000000e+00 -2.100000000000e+01
5.570596650682e+00 0.000000000000e+00 -2.000000000000e+01
5.217608577672e+00 0.000000000000e+00 -2.100000000000e+01
5.217608577672e+00 0.000000000000e+00 -2.000000000000e+01
4.880337926390e+00 0.000000000000e+00 -2.100000000000e+01
4.880337926390e+00 0.000000000000e+00 -2.000000000000e+01
4.558084850681e+00 0.000000000000e+00 -2.100000000000e+01
4.558084850681e+00 0.000000000000e+00 -2.000000000000e+01
4.250180666284e+00 0.000000000000e+00 -2.100000000000e+01
4.250180666284e+00 0.000000000000e+00 -2.000000000000e+01
3.955986463295e+00 0.000000000000e+00 -2.100000000000e+01
3.955986463295e+00 0.000000000000e+00 -2.000000000000e+01
3.674891780407e+00 0.000000000000e+00 -2.100000000000e+01
3.674891780407e+00 0.000000000000e+00 -2.000000000000e+01
3.406313338193e+00 0.000000000000e+00 -2.100000000000e+01
3.406313338193e+00 0.000000000000e+00 -2.000000000000e+01
3.149693828776e+00 0.000000000000e+00 -2.100000000000e+01
3.149693828776e+00 0.000000000000e+00 -2.000000000000e+01
2.904500759404e+00 0.000000000000e+00 -2.100000000000e+01
2.904500759404e+00 0.000000000000e+00 -2.000000000000e+01
2.670225347514e+00 0.000000000000e+00 -2.100000000000e+01
2.670225347514e+00 0.000000000000e+00 -2.000000000000e+01
2.446381464989e+00 0.000000000000e+00 -2.100000000000e+01
[...]
POINT_DATA 2478
SCALARS PRESSURE1 double 1
LOOKUP_TABLE default
3.075992882970e+05
3.174092882970e+05
3.162098311825e+05
3.063998311825e+05
3.272192882970e+05
3.260198311825e+05
3.370292882970e+05
3.358298311825e+05
3.468392882970e+05
3.456398311825e+05
3.566492882970e+05
3.554498311825e+05
3.664592882970e+05
3.652598311825e+05
3.762692882970e+05
3.750698311825e+05
3.860792882970e+05
3.848798311825e+05
3.958892882970e+05
3.946898311825e+05
4.056992882970e+05
4.044998311825e+05
4.155092882970e+05
4.143098311826e+05
4.253192882970e+05
4.241198311825e+05
4.351292882970e+05
4.339298311825e+05
4.449392882970e+05
4.437398311825e+05
4.547492882970e+05
4.535498311825e+05
4.645592882970e+05
4.633598311825e+05
4.743692882970e+05
4.731698311825e+05
4.841792882970e+05
4.829798311825e+05
4.939892882970e+05
4.927898311825e+05
5.037992882970e+05
5.025998311825e+05
3.150103740680e+05
3.052003740680e+05
3.248203740680e+05
3.346303740680e+05
3.444403740681e+05
3.542503740681e+05
3.640603740681e+05
3.738703740681e+05
3.836803740681e+05
3.934903740681e+05
4.033003740681e+05
4.131103740681e+05
4.229203740681e+05
4.327303740681e+05
4.425403740681e+05
4.523503740681e+05
4.621603740681e+05
4.719703740681e+05
4.817803740680e+05
4.915903740680e+05
5.014003740680e+05
3.142906997994e+05
3.044806997993e+05
3.241006997994e+05
3.339106997994e+05
3.437206997994e+05
3.535306997994e+05
3.633406997994e+05
3.731506997994e+05
3.829606997994e+05
3.927706997994e+05
4.025806997994e+05
4.123906997994e+05
4.222006997994e+05
4.320106997994e+05
4.418206997994e+05
4.516306997994e+05
4.614406997994e+05
4.712506997994e+05
4.810606997994e+05
4.908706997994e+05
5.006806997993e+05
3.060100000000e+05
2.962000000000e+05
3.060984925956e+05
2.962884925956e+05
3.061873164196e+05
2.963773164196e+05
3.062764895737e+05
2.964664895737e+05
3.063660312925e+05
2.965560312925e+05
3.064559620286e+05
2.966459620286e+05
3.065463035478e+05
2.967363035478e+05
3.066370790317e+05
2.968270790317e+05
3.067283131916e+05
2.969183131916e+05
3.068200323933e+05
2.970100323933e+05
3.069122647950e+05
2.971022647950e+05
3.070050404998e+05
2.971950404998e+05
3.070983917243e+05
2.972883917243e+05
3.071923529857e+05
2.973823529857e+05
3.072869613108e+05
2.974769613108e+05
3.073822564679e+05
2.975722564679e+05
3.074782812266e+05
2.976682812266e+05
3.075750816496e+05
2.977650816496e+05
3.076727074193e+05
2.978627074193e+05
3.077712122075e+05
2.979612122076e+05
3.078706540925e+05
2.980606540925e+05
3.079710960318e+05
2.981610960318e+05
3.080726064013e+05
2.982626064013e+05
3.081752596098e+05
2.983652596098e+05
3.082791368042e+05
2.984691368042e+05
3.083843266796e+05
2.985743266796e+05
3.084909264173e+05
2.986809264173e+05
3.085990427708e+05
2.987890427708e+05
3.087087933336e+05
2.988987933336e+05
3.088203080234e+05
2.990103080234e+05
3.089337308302e+05
2.991237308302e+05
3.090492218854e+05
2.992392218854e+05
3.091669599280e+05
2.993569599280e+05
3.092871452594e+05
2.994771452593e+05
3.094100033110e+05
2.996000033110e+05
3.095357889826e+05
2.997257889826e+05
3.096647919596e+05
2.998547919596e+05
3.097973432885e+05
2.999873432885e+05
3.099338235844e+05
3.001238235844e+05
3.100746733829e+05
3.002646733829e+05
3.102204063457e+05
3.004104063457e+05
3.103716263182e+05
3.005616263182e+05
3.105290496735e+05
3.007190496735e+05
3.106935350362e+05
3.008835350362e+05
3.108661235192e+05
3.010561235192e+05
3.110480942764e+05
3.012380942764e+05
3.112410429410e+05
3.014310429410e+05
3.114469952826e+05
3.016369952826e+05
3.116685769291e+05
3.018585769291e+05
3.119092759733e+05
3.020992759733e+05
3.121738669633e+05
3.023638669633e+05
3.124691319674e+05
3.026591319674e+05
3.128051691988e+05
3.029951691988e+05
3.131979755934e+05
3.033879755934e+05
3.136751513925e+05
3.038651513925e+05
3.158200000000e+05
3.159084925956e+05
3.159973164196e+05
3.160864895737e+05
3.161760312925e+05
3.162659620286e+05
3.163563035478e+05
3.164470790317e+05
3.165383131916e+05
3.166300323933e+05
3.167222647950e+05
3.168150404998e+05
3.169083917243e+05
3.170023529857e+05
3.170969613108e+05
3.171922564679e+05
3.172882812266e+05
3.173850816496e+05
3.174827074193e+05
3.175812122075e+05
3.176806540925e+05
3.177810960318e+05
3.178826064013e+05
3.179852596098e+05
3.180891368042e+05
3.181943266796e+05
3.183009264173e+05
3.184090427708e+05
3.185187933336e+05
3.186303080234e+05
3.187437308302e+05
3.188592218854e+05
3.189769599280e+05
3.190971452594e+05
3.192200033110e+05
3.193457889826e+05
3.194747919596e+05
3.196073432885e+05
3.197438235844e+05
3.198846733829e+05
3.200304063457e+05
3.201816263182e+05
3.203390496735e+05
3.205035350362e+05
3.206761235192e+05
3.208580942764e+05
3.210510429410e+05
3.212569952826e+05
3.214785769291e+05
3.217192759733e+05
3.219838669633e+05
3.222791319674e+05
3.226151691988e+05
3.230079755934e+05
3.234851513925e+05
3.256300000000e+05
3.257184925956e+05
3.258073164196e+05
3.258964895737e+05
3.259860312925e+05
3.260759620286e+05
3.261663035478e+05
3.262570790317e+05
3.263483131916e+05
3.264400323933e+05
3.265322647950e+05
3.266250404998e+05
3.267183917243e+05
3.268123529857e+05
3.269069613108e+05
3.270022564679e+05
3.270982812266e+05
3.271950816496e+05
3.272927074193e+05
3.273912122075e+05
3.274906540925e+05
3.275910960318e+05
3.276926064013e+05
3.277952596098e+05
3.278991368042e+05
3.280043266796e+05
3.281109264173e+05
3.282190427708e+05
3.283287933336e+05
3.284403080234e+05
3.285537308302e+05
3.286692218854e+05
3.287869599280e+05
3.289071452594e+05
3.290300033110e+05
3.291557889826e+05
3.292847919596e+05
3.294173432885e+05
3.295538235844e+05
3.296946733829e+05
3.298404063457e+05
3.299916263182e+05
3.301490496735e+05
3.303135350362e+05
3.304861235192e+05
3.306680942764e+05
3.308610429410e+05
3.310669952826e+05
3.312885769291e+05
3.315292759733e+05
3.317938669633e+05
3.320891319674e+05
3.324251691989e+05
3.328179755934e+05
3.332951513925e+05
3.354400000000e+05
3.355284925956e+05
3.356173164196e+05
3.357064895737e+05
3.357960312925e+05
3.358859620286e+05
3.359763035478e+05
3.360670790317e+05
3.361583131916e+05
3.362500323933e+05
3.363422647950e+05
3.364350404998e+05
3.365283917243e+05
3.366223529857e+05
3.367169613108e+05
3.368122564679e+05
3.369082812266e+05
3.370050816496e+05
3.371027074193e+05
3.372012122075e+05
3.373006540925e+05
3.374010960318e+05
3.375026064013e+05
3.376052596098e+05
3.377091368042e+05
3.378143266796e+05
3.379209264173e+05
3.380290427708e+05
3.381387933336e+05
3.382503080234e+05
3.383637308302e+05
3.384792218854e+05
3.385969599280e+05
3.387171452594e+05
3.388400033110e+05
3.389657889826e+05
3.390947919596e+05
3.392273432885e+05
3.393638235844e+05
3.395046733829e+05
3.396504063457e+05
3.398016263182e+05
3.399590496735e+05
3.401235350362e+05
3.402961235192e+05
3.404780942764e+05
3.406710429410e+05
3.408769952826e+05
3.410985769291e+05
3.413392759733e+05
3.416038669633e+05
3.418991319674e+05
3.422351691989e+05
3.426279755935e+05
3.431051513925e+05
3.452500000000e+05
3.453384925956e+05
3.454273164196e+05
3.455164895737e+05
3.456060312925e+05
3.456959620286e+05
3.457863035478e+05
3.458770790317e+05
3.459683131916e+05
3.460600323933e+05
3.461522647950e+05
3.462450404998e+05
3.463383917243e+05
3.464323529857e+05
3.465269613108e+05
3.466222564679e+05
3.467182812266e+05
3.468150816496e+05
3.469127074193e+05
3.470112122075e+05
3.471106540925e+05
3.472110960318e+05
3.473126064013e+05
3.474152596098e+05
3.475191368042e+05
3.476243266796e+05
3.477309264173e+05
3.478390427708e+05
3.479487933336e+05
3.480603080234e+05
3.481737308302e+05
3.482892218854e+05
3.484069599280e+05
3.485271452594e+05
3.486500033110e+05
3.487757889826e+05
3.489047919596e+05
3.490373432885e+05
3.491738235844e+05
3.493146733829e+05
3.494604063457e+05
3.496116263182e+05
3.497690496735e+05
3.499335350362e+05
3.501061235192e+05
3.502880942764e+05
3.504810429410e+05
3.506869952826e+05
3.509085769291e+05
3.511492759733e+05
3.514138669633e+05
3.517091319674e+05
3.520451691989e+05
3.524379755934e+05
3.529151513925e+05
3.550600000000e+05
3.551484925956e+05
3.552373164196e+05
3.553264895737e+05
3.554160312925e+05
3.555059620286e+05
3.555963035478e+05
3.556870790317e+05
3.557783131916e+05
3.558700323933e+05
3.559622647950e+05
3.560550404998e+05
3.561483917243e+05
3.562423529857e+05
3.563369613108e+05
3.564322564679e+05
3.565282812266e+05
3.566250816496e+05
3.567227074193e+05
3.568212122075e+05
3.569206540925e+05
3.570210960318e+05
3.571226064013e+05
3.572252596098e+05
3.573291368042e+05
3.574343266796e+05
3.575409264173e+05
3.576490427708e+05
3.577587933336e+05
3.578703080234e+05
3.579837308302e+05
3.580992218854e+05
3.582169599280e+05
3.583371452594e+05
3.584600033110e+05
3.585857889826e+05
3.587147919596e+05
3.588473432885e+05
3.589838235844e+05
3.591246733829e+05
3.592704063457e+05
3.594216263182e+05
3.595790496735e+05
3.597435350362e+05
3.599161235192e+05
3.600980942764e+05
3.602910429410e+05
3.604969952826e+05
3.607185769291e+05
3.609592759733e+05
3.612238669633e+05
3.615191319674e+05
3.618551691989e+05
3.622479755935e+05
3.627251513925e+05
3.648700000000e+05
3.649584925956e+05
3.650473164196e+05
3.651364895737e+05
3.652260312925e+05
3.653159620286e+05
3.654063035478e+05
3.654970790317e+05
3.655883131916e+05
3.656800323933e+05
3.657722647950e+05
3.658650404998e+05
3.659583917243e+05
3.660523529857e+05
3.661469613108e+05
3.662422564679e+05
3.663382812266e+05
3.664350816496e+05
3.665327074193e+05
3.666312122075e+05
3.667306540925e+05
3.668310960318e+05
3.669326064013e+05
3.670352596098e+05
3.671391368042e+05
3.672443266796e+05
3.673509264173e+05
3.674590427708e+05
3.675687933336e+05
3.676803080234e+05
3.677937308302e+05
3.679092218854e+05
3.680269599280e+05
3.681471452594e+05
3.682700033110e+05
3.683957889826e+05
3.685247919596e+05
3.686573432885e+05
3.687938235844e+05
3.689346733829e+05
3.690804063457e+05
3.692316263182e+05
3.693890496735e+05
3.695535350362e+05
3.697261235192e+05
3.699080942764e+05
3.701010429410e+05
3.703069952826e+05
3.705285769291e+05
3.707692759733e+05
3.710338669633e+05
3.713291319674e+05
3.716651691989e+05
3.720579755935e+05
3.725351513925e+05
3.746800000000e+05
3.747684925956e+05
3.748573164196e+05
3.749464895737e+05
3.750360312925e+05
3.751259620286e+05
3.752163035478e+05
3.753070790317e+05
3.753983131916e+05
3.754900323933e+05
3.755822647950e+05
3.756750404998e+05
3.757683917243e+05
3.758623529857e+05
3.759569613108e+05
3.760522564679e+05
3.761482812266e+05
3.762450816496e+05
3.763427074193e+05
3.764412122075e+05
3.765406540925e+05
3.766410960318e+05
3.767426064013e+05
3.768452596098e+05
3.769491368042e+05
3.770543266796e+05
3.771609264173e+05
3.772690427708e+05
3.773787933336e+05
3.774903080234e+05
3.776037308302e+05
3.777192218854e+05
3.778369599280e+05
3.779571452594e+05
3.780800033110e+05
3.782057889826e+05
3.783347919596e+05
3.784673432885e+05
3.786038235844e+05
3.787446733829e+05
3.788904063457e+05
3.790416263182e+05
3.791990496735e+05
3.793635350362e+05
3.795361235192e+05
3.797180942764e+05
3.799110429410e+05
3.801169952826e+05
3.803385769291e+05
3.805792759733e+05
3.808438669633e+05
3.811391319674e+05
3.814751691989e+05
3.818679755935e+05
3.823451513925e+05
3.844900000000e+05
3.845784925956e+05
3.846673164196e+05
3.847564895737e+05
3.848460312925e+05
3.849359620286e+05
3.850263035478e+05
3.851170790317e+05
3.852083131916e+05
3.853000323933e+05
3.853922647950e+05
3.854850404998e+05
3.855783917243e+05
3.856723529857e+05
3.857669613108e+05
3.858622564679e+05
3.859582812266e+05
3.860550816496e+05
3.861527074193e+05
3.862512122075e+05
3.863506540925e+05
3.864510960318e+05
3.865526064013e+05
3.866552596098e+05
3.867591368042e+05
3.868643266796e+05
3.869709264173e+05
3.870790427708e+05
3.871887933336e+05
3.873003080234e+05
3.874137308302e+05
3.875292218854e+05
3.876469599280e+05
3.877671452594e+05
3.878900033110e+05
3.880157889826e+05
3.881447919596e+05
3.882773432885e+05
3.884138235844e+05
3.885546733829e+05
3.887004063457e+05
3.888516263182e+05
3.890090496735e+05
3.891735350362e+05
3.893461235192e+05
3.895280942764e+05
3.897210429410e+05
3.899269952826e+05
3.901485769291e+05
3.903892759733e+05
3.906538669633e+05
3.909491319674e+05
3.912851691989e+05
3.916779755935e+05
3.921551513925e+05
3.943000000000e+05
3.943884925956e+05
3.944773164196e+05
3.945664895737e+05
3.946560312925e+05
3.947459620286e+05
3.948363035478e+05
3.949270790317e+05
3.950183131916e+05
3.951100323933e+05
3.952022647950e+05
3.952950404998e+05
3.953883917243e+05
3.954823529857e+05
3.955769613108e+05
3.956722564679e+05
3.957682812266e+05
3.958650816496e+05
3.959627074193e+05
3.960612122075e+05
3.961606540925e+05
3.962610960318e+05
3.963626064013e+05
3.964652596098e+05
3.965691368042e+05
3.966743266796e+05
3.967809264173e+05
3.968890427708e+05
3.969987933336e+05
3.971103080234e+05
3.972237308302e+05
3.973392218854e+05
3.974569599280e+05
3.975771452594e+05
3.977000033110e+05
3.978257889826e+05
3.979547919596e+05
3.980873432885e+05
3.982238235844e+05
3.983646733829e+05
3.985104063457e+05
3.986616263182e+05
3.988190496735e+05
3.989835350362e+05
3.991561235192e+05
3.993380942764e+05
3.995310429410e+05
3.997369952826e+05
3.999585769291e+05
4.001992759733e+05
4.004638669633e+05
4.007591319674e+05
4.010951691989e+05
4.014879755935e+05
4.019651513925e+05
4.041100000000e+05
4.041984925956e+05
4.042873164196e+05
4.043764895737e+05
4.044660312925e+05
4.045559620286e+05
4.046463035478e+05
4.047370790317e+05
4.048283131916e+05
4.049200323933e+05
4.050122647950e+05
4.051050404998e+05
4.051983917243e+05
4.052923529857e+05
4.053869613108e+05
4.054822564679e+05
4.055782812266e+05
4.056750816496e+05
4.057727074193e+05
4.058712122075e+05
4.059706540925e+05
4.060710960318e+05
4.061726064013e+05
4.062752596098e+05
4.063791368042e+05
4.064843266796e+05
4.065909264173e+05
4.066990427708e+05
4.068087933336e+05
4.069203080234e+05
4.070337308302e+05
4.071492218854e+05
4.072669599280e+05
4.073871452594e+05
4.075100033110e+05
4.076357889826e+05
4.077647919596e+05
4.078973432885e+05
4.080338235844e+05
4.081746733829e+05
4.083204063457e+05
4.084716263182e+05
4.086290496735e+05
4.087935350362e+05
4.089661235192e+05
4.091480942764e+05
4.093410429410e+05
4.095469952826e+05
4.097685769291e+05
4.100092759733e+05
4.102738669633e+05
4.105691319674e+05
4.109051691989e+05
4.112979755935e+05
4.117751513925e+05
4.139200000000e+05
4.140084925956e+05
4.140973164196e+05
4.141864895737e+05
4.142760312925e+05
4.143659620286e+05
4.144563035478e+05
4.145470790317e+05
4.146383131916e+05
4.147300323933e+05
4.148222647950e+05
4.149150404998e+05
4.150083917243e+05
4.151023529857e+05
4.151969613108e+05
4.152922564679e+05
4.153882812266e+05
4.154850816496e+05
4.155827074193e+05
4.156812122075e+05
4.157806540925e+05
4.158810960318e+05
4.159826064013e+05
4.160852596098e+05
4.161891368042e+05
4.162943266796e+05
4.164009264173e+05
4.165090427708e+05
4.166187933336e+05
4.167303080234e+05
4.168437308302e+05
4.169592218854e+05
4.170769599280e+05
4.171971452594e+05
4.173200033110e+05
4.174457889826e+05
4.175747919596e+05
4.177073432885e+05
4.178438235844e+05
4.179846733829e+05
4.181304063457e+05
4.182816263182e+05
4.184390496735e+05
4.186035350362e+05
4.187761235192e+05
4.189580942764e+05
4.191510429410e+05
4.193569952826e+05
4.195785769291e+05
4.198192759733e+05
4.200838669633e+05
4.203791319674e+05
4.207151691989e+05
4.211079755935e+05
4.215851513925e+05
4.237300000000e+05
4.238184925956e+05
4.239073164196e+05
4.239964895737e+05
4.240860312925e+05
4.241759620286e+05
4.242663035478e+05
4.243570790317e+05
4.244483131916e+05
4.245400323933e+05
4.246322647950e+05
4.247250404998e+05
4.248183917243e+05
4.249123529857e+05
4.250069613108e+05
4.251022564679e+05
4.251982812266e+05
4.252950816496e+05
4.253927074193e+05
4.254912122075e+05
4.255906540925e+05
4.256910960318e+05
4.257926064013e+05
4.258952596098e+05
4.259991368042e+05
4.261043266796e+05
4.262109264173e+05
4.263190427708e+05
4.264287933336e+05
4.265403080234e+05
4.266537308302e+05
4.267692218854e+05
4.268869599280e+05
4.270071452594e+05
4.271300033110e+05
4.272557889826e+05
4.273847919596e+05
4.275173432885e+05
4.276538235844e+05
4.277946733829e+05
4.279404063457e+05
4.280916263182e+05
4.282490496735e+05
4.284135350362e+05
4.285861235192e+05
4.287680942764e+05
4.289610429410e+05
4.291669952826e+05
4.293885769291e+05
4.296292759733e+05
4.298938669633e+05
4.301891319674e+05
4.305251691989e+05
4.309179755935e+05
4.313951513925e+05
4.335400000000e+05
4.336284925956e+05
4.337173164196e+05
4.338064895737e+05
4.338960312925e+05
4.339859620286e+05
4.340763035478e+05
4.341670790317e+05
4.342583131916e+05
4.343500323933e+05
4.344422647950e+05
4.345350404998e+05
4.346283917243e+05
4.347223529857e+05
4.348169613108e+05
4.349122564679e+05
4.350082812266e+05
4.351050816496e+05
4.352027074193e+05
4.353012122075e+05
4.354006540925e+05
4.355010960318e+05
4.356026064013e+05
4.357052596098e+05
4.358091368042e+05
4.359143266796e+05
4.360209264173e+05
4.361290427708e+05
4.362387933336e+05
4.363503080234e+05
4.364637308302e+05
4.365792218854e+05
4.366969599280e+05
4.368171452594e+05
4.369400033110e+05
4.370657889826e+05
4.371947919596e+05
4.373273432885e+05
4.374638235844e+05
4.376046733829e+05
4.377504063457e+05
4.379016263182e+05
4.380590496735e+05
4.382235350362e+05
4.383961235192e+05
4.385780942764e+05
4.387710429410e+05
4.389769952826e+05
4.391985769291e+05
4.394392759733e+05
4.397038669633e+05
4.399991319674e+05
4.403351691989e+05
4.407279755935e+05
4.412051513925e+05
4.433500000000e+05
4.434384925956e+05
4.435273164196e+05
4.436164895737e+05
4.437060312925e+05
4.437959620286e+05
4.438863035478e+05
4.439770790317e+05
4.440683131916e+05
4.441600323933e+05
4.442522647950e+05
4.443450404998e+05
4.444383917243e+05
4.445323529857e+05
4.446269613108e+05
4.447222564679e+05
4.448182812266e+05
4.449150816496e+05
4.450127074193e+05
4.451112122075e+05
4.452106540925e+05
4.453110960318e+05
4.454126064013e+05
4.455152596098e+05
4.456191368042e+05
4.457243266796e+05
4.458309264173e+05
4.459390427708e+05
4.460487933336e+05
4.461603080234e+05
4.462737308302e+05
4.463892218854e+05
4.465069599280e+05
4.466271452594e+05
4.467500033110e+05
4.468757889826e+05
4.470047919596e+05
4.471373432885e+05
4.472738235844e+05
4.474146733829e+05
4.475604063457e+05
4.477116263182e+05
4.478690496735e+05
4.480335350362e+05
4.482061235192e+05
4.483880942764e+05
4.485810429410e+05
4.487869952826e+05
4.490085769291e+05
4.492492759733e+05
4.495138669633e+05
4.498091319674e+05
4.501451691989e+05
4.505379755935e+05
4.510151513925e+05
4.531600000000e+05
4.532484925956e+05
4.533373164196e+05
4.534264895737e+05
4.535160312925e+05
4.536059620286e+05
4.536963035478e+05
4.537870790317e+05
4.538783131916e+05
4.539700323933e+05
4.540622647950e+05
4.541550404998e+05
4.542483917243e+05
4.543423529857e+05
4.544369613108e+05
4.545322564679e+05
4.546282812266e+05
4.547250816496e+05
4.548227074193e+05
4.549212122075e+05
4.550206540925e+05
4.551210960318e+05
4.552226064013e+05
4.553252596098e+05
4.554291368042e+05
4.555343266796e+05
4.556409264173e+05
4.557490427708e+05
4.558587933336e+05
4.559703080234e+05
4.560837308302e+05
4.561992218854e+05
4.563169599280e+05
4.564371452594e+05
4.565600033110e+05
4.566857889826e+05
4.568147919596e+05
4.569473432885e+05
4.570838235844e+05
4.572246733829e+05
4.573704063457e+05
4.575216263182e+05
4.576790496735e+05
4.578435350362e+05
4.580161235192e+05
4.581980942764e+05
4.583910429410e+05
4.585969952826e+05
4.588185769291e+05
4.590592759733e+05
4.593238669633e+05
4.596191319674e+05
4.599551691989e+05
4.603479755935e+05
4.608251513925e+05
4.629700000000e+05
4.630584925956e+05
4.631473164196e+05
4.632364895737e+05
4.633260312925e+05
4.634159620286e+05
4.635063035478e+05
4.635970790317e+05
4.636883131916e+05
4.637800323933e+05
4.638722647950e+05
4.639650404998e+05
4.640583917243e+05
4.641523529857e+05
4.642469613108e+05
4.643422564679e+05
4.644382812266e+05
4.645350816496e+05
4.646327074193e+05
4.647312122075e+05
4.648306540925e+05
4.649310960318e+05
4.650326064013e+05
4.651352596098e+05
4.652391368042e+05
4.653443266796e+05
4.654509264173e+05
4.655590427708e+05
4.656687933336e+05
4.657803080234e+05