# vtk DataFile Version 3.0
Unstructured Grid from OpenGeoSys
ASCII
DATASET UNSTRUCTURED_GRID
FIELD TimesAndCycles 2
TIME 1 1 double
8.640000000000e+04
CYLCE 1 1 long
1
POINTS 2478 double
5.000000000000e-02 0.000000000000e+00 -2.000000000000e+01
5.000000000000e-02 0.000000000000e+00 -2.100000000000e+01
1.000000000000e-01 0.000000000000e+00 -2.100000000000e+01
1.000000000000e-01 0.000000000000e+00 -2.000000000000e+01
5.000000000000e-02 0.000000000000e+00 -2.200000000000e+01
1.000000000000e-01 0.000000000000e+00 -2.200000000000e+01
5.000000000000e-02 0.000000000000e+00 -2.300000000000e+01
1.000000000000e-01 0.000000000000e+00 -2.300000000000e+01
5.000000000000e-02 0.000000000000e+00 -2.400000000000e+01
1.000000000000e-01 0.000000000000e+00 -2.400000000000e+01
5.000000000000e-02 0.000000000000e+00 -2.500000000000e+01
1.000000000000e-01 0.000000000000e+00 -2.500000000000e+01
5.000000000000e-02 0.000000000000e+00 -2.600000000000e+01
1.000000000000e-01 0.000000000000e+00 -2.600000000000e+01
5.000000000000e-02 0.000000000000e+00 -2.700000000000e+01
1.000000000000e-01 0.000000000000e+00 -2.700000000000e+01
5.000000000000e-02 0.000000000000e+00 -2.800000000000e+01
1.000000000000e-01 0.000000000000e+00 -2.800000000000e+01
5.000000000000e-02 0.000000000000e+00 -2.900000000000e+01
1.000000000000e-01 0.000000000000e+00 -2.900000000000e+01
5.000000000000e-02 0.000000000000e+00 -3.000000000000e+01
1.000000000000e-01 0.000000000000e+00 -3.000000000000e+01
5.000000000000e-02 0.000000000000e+00 -3.100000000000e+01
1.000000000000e-01 0.000000000000e+00 -3.100000000000e+01
5.000000000000e-02 0.000000000000e+00 -3.200000000000e+01
1.000000000000e-01 0.000000000000e+00 -3.200000000000e+01
5.000000000000e-02 0.000000000000e+00 -3.300000000000e+01
1.000000000000e-01 0.000000000000e+00 -3.300000000000e+01
5.000000000000e-02 0.000000000000e+00 -3.400000000000e+01
1.000000000000e-01 0.000000000000e+00 -3.400000000000e+01
5.000000000000e-02 0.000000000000e+00 -3.500000000000e+01
1.000000000000e-01 0.000000000000e+00 -3.500000000000e+01
5.000000000000e-02 0.000000000000e+00 -3.600000000000e+01
1.000000000000e-01 0.000000000000e+00 -3.600000000000e+01
5.000000000000e-02 0.000000000000e+00 -3.700000000000e+01
1.000000000000e-01 0.000000000000e+00 -3.700000000000e+01
5.000000000000e-02 0.000000000000e+00 -3.800000000000e+01
1.000000000000e-01 0.000000000000e+00 -3.800000000000e+01
5.000000000000e-02 0.000000000000e+00 -3.900000000000e+01
1.000000000000e-01 0.000000000000e+00 -3.900000000000e+01
5.000000000000e-02 0.000000000000e+00 -4.000000000000e+01
1.000000000000e-01 0.000000000000e+00 -4.000000000000e+01
2.000000000000e-01 0.000000000000e+00 -2.100000000000e+01
2.000000000000e-01 0.000000000000e+00 -2.000000000000e+01
2.000000000000e-01 0.000000000000e+00 -2.200000000000e+01
2.000000000000e-01 0.000000000000e+00 -2.300000000000e+01
2.000000000000e-01 0.000000000000e+00 -2.400000000000e+01
2.000000000000e-01 0.000000000000e+00 -2.500000000000e+01
2.000000000000e-01 0.000000000000e+00 -2.600000000000e+01
2.000000000000e-01 0.000000000000e+00 -2.700000000000e+01
2.000000000000e-01 0.000000000000e+00 -2.800000000000e+01
2.000000000000e-01 0.000000000000e+00 -2.900000000000e+01
2.000000000000e-01 0.000000000000e+00 -3.000000000000e+01
2.000000000000e-01 0.000000000000e+00 -3.100000000000e+01
2.000000000000e-01 0.000000000000e+00 -3.200000000000e+01
2.000000000000e-01 0.000000000000e+00 -3.300000000000e+01
2.000000000000e-01 0.000000000000e+00 -3.400000000000e+01
2.000000000000e-01 0.000000000000e+00 -3.500000000000e+01
2.000000000000e-01 0.000000000000e+00 -3.600000000000e+01
2.000000000000e-01 0.000000000000e+00 -3.700000000000e+01
2.000000000000e-01 0.000000000000e+00 -3.800000000000e+01
2.000000000000e-01 0.000000000000e+00 -3.900000000000e+01
2.000000000000e-01 0.000000000000e+00 -4.000000000000e+01
3.000000000000e-01 0.000000000000e+00 -2.100000000000e+01
3.000000000000e-01 0.000000000000e+00 -2.000000000000e+01
3.000000000000e-01 0.000000000000e+00 -2.200000000000e+01
3.000000000000e-01 0.000000000000e+00 -2.300000000000e+01
3.000000000000e-01 0.000000000000e+00 -2.400000000000e+01
3.000000000000e-01 0.000000000000e+00 -2.500000000000e+01
3.000000000000e-01 0.000000000000e+00 -2.600000000000e+01
3.000000000000e-01 0.000000000000e+00 -2.700000000000e+01
3.000000000000e-01 0.000000000000e+00 -2.800000000000e+01
3.000000000000e-01 0.000000000000e+00 -2.900000000000e+01
3.000000000000e-01 0.000000000000e+00 -3.000000000000e+01
3.000000000000e-01 0.000000000000e+00 -3.100000000000e+01
3.000000000000e-01 0.000000000000e+00 -3.200000000000e+01
3.000000000000e-01 0.000000000000e+00 -3.300000000000e+01
3.000000000000e-01 0.000000000000e+00 -3.400000000000e+01
3.000000000000e-01 0.000000000000e+00 -3.500000000000e+01
3.000000000000e-01 0.000000000000e+00 -3.600000000000e+01
3.000000000000e-01 0.000000000000e+00 -3.700000000000e+01
3.000000000000e-01 0.000000000000e+00 -3.800000000000e+01
3.000000000000e-01 0.000000000000e+00 -3.900000000000e+01
3.000000000000e-01 0.000000000000e+00 -4.000000000000e+01
3.017908699421e+01 0.000000000000e+00 -2.100000000000e+01
3.017908699421e+01 0.000000000000e+00 -2.000000000000e+01
2.873036212330e+01 0.000000000000e+00 -2.100000000000e+01
2.873036212330e+01 0.000000000000e+00 -2.000000000000e+01
2.734614430377e+01 0.000000000000e+00 -2.100000000000e+01
2.734614430377e+01 0.000000000000e+00 -2.000000000000e+01
2.602356124444e+01 0.000000000000e+00 -2.100000000000e+01
2.602356124444e+01 0.000000000000e+00 -2.000000000000e+01
2.475986854800e+01 0.000000000000e+00 -2.100000000000e+01
2.475986854800e+01 0.000000000000e+00 -2.000000000000e+01
2.355244401630e+01 0.000000000000e+00 -2.100000000000e+01
2.355244401630e+01 0.000000000000e+00 -2.000000000000e+01
2.239878220923e+01 0.000000000000e+00 -2.100000000000e+01
2.239878220923e+01 0.000000000000e+00 -2.000000000000e+01
2.129648924588e+01 0.000000000000e+00 -2.100000000000e+01
2.129648924588e+01 0.000000000000e+00 -2.000000000000e+01
2.024327783711e+01 0.000000000000e+00 -2.100000000000e+01
2.024327783711e+01 0.000000000000e+00 -2.000000000000e+01
1.923696253941e+01 0.000000000000e+00 -2.100000000000e+01
1.923696253941e+01 0.000000000000e+00 -2.000000000000e+01
1.827545522004e+01 0.000000000000e+00 -2.100000000000e+01
1.827545522004e+01 0.000000000000e+00 -2.000000000000e+01
1.735676072407e+01 0.000000000000e+00 -2.100000000000e+01
1.735676072407e+01 0.000000000000e+00 -2.000000000000e+01
1.647897273441e+01 0.000000000000e+00 -2.100000000000e+01
1.647897273441e+01 0.000000000000e+00 -2.000000000000e+01
1.564026981610e+01 0.000000000000e+00 -2.100000000000e+01
1.564026981610e+01 0.000000000000e+00 -2.000000000000e+01
1.483891163683e+01 0.000000000000e+00 -2.100000000000e+01
1.483891163683e+01 0.000000000000e+00 -2.000000000000e+01
1.407323535568e+01 0.000000000000e+00 -2.100000000000e+01
1.407323535568e+01 0.000000000000e+00 -2.000000000000e+01
1.334165217268e+01 0.000000000000e+00 -2.100000000000e+01
1.334165217268e+01 0.000000000000e+00 -2.000000000000e+01
1.264264403200e+01 0.000000000000e+00 -2.100000000000e+01
1.264264403200e+01 0.000000000000e+00 -2.000000000000e+01
1.197476047194e+01 0.000000000000e+00 -2.100000000000e+01
1.197476047194e+01 0.000000000000e+00 -2.000000000000e+01
1.133661561520e+01 0.000000000000e+00 -2.100000000000e+01
1.133661561520e+01 0.000000000000e+00 -2.000000000000e+01
1.072688529313e+01 0.000000000000e+00 -2.100000000000e+01
1.072688529313e+01 0.000000000000e+00 -2.000000000000e+01
1.014430429803e+01 0.000000000000e+00 -2.100000000000e+01
1.014430429803e+01 0.000000000000e+00 -2.000000000000e+01
9.587663757842e+00 0.000000000000e+00 -2.100000000000e+01
9.587663757842e+00 0.000000000000e+00 -2.000000000000e+01
9.055808627670e+00 0.000000000000e+00 -2.100000000000e+01
9.055808627670e+00 0.000000000000e+00 -2.000000000000e+01
8.547635293055e+00 0.000000000000e+00 -2.100000000000e+01
8.547635293055e+00 0.000000000000e+00 -2.000000000000e+01
8.062089279933e+00 0.000000000000e+00 -2.100000000000e+01
8.062089279933e+00 0.000000000000e+00 -2.000000000000e+01
7.598163066571e+00 0.000000000000e+00 -2.100000000000e+01
7.598163066571e+00 0.000000000000e+00 -2.000000000000e+01
7.154893992937e+00 0.000000000000e+00 -2.100000000000e+01
7.154893992937e+00 0.000000000000e+00 -2.000000000000e+01
6.731362263145e+00 0.000000000000e+00 -2.100000000000e+01
6.731362263145e+00 0.000000000000e+00 -2.000000000000e+01
6.326689036858e+00 0.000000000000e+00 -2.100000000000e+01
6.326689036858e+00 0.000000000000e+00 -2.000000000000e+01
5.940034605670e+00 0.000000000000e+00 -2.100000000000e+01
5.940034605670e+00 0.000000000000e+00 -2.000000000000e+01
5.570596650682e+00 0.000000000000e+00 -2.100000000000e+01
5.570596650682e+00 0.000000000000e+00 -2.000000000000e+01
5.217608577672e+00 0.000000000000e+00 -2.100000000000e+01
5.217608577672e+00 0.000000000000e+00 -2.000000000000e+01
4.880337926390e+00 0.000000000000e+00 -2.100000000000e+01
4.880337926390e+00 0.000000000000e+00 -2.000000000000e+01
4.558084850681e+00 0.000000000000e+00 -2.100000000000e+01
4.558084850681e+00 0.000000000000e+00 -2.000000000000e+01
4.250180666284e+00 0.000000000000e+00 -2.100000000000e+01
4.250180666284e+00 0.000000000000e+00 -2.000000000000e+01
3.955986463295e+00 0.000000000000e+00 -2.100000000000e+01
3.955986463295e+00 0.000000000000e+00 -2.000000000000e+01
3.674891780407e+00 0.000000000000e+00 -2.100000000000e+01
3.674891780407e+00 0.000000000000e+00 -2.000000000000e+01
3.406313338193e+00 0.000000000000e+00 -2.100000000000e+01
3.406313338193e+00 0.000000000000e+00 -2.000000000000e+01
3.149693828776e+00 0.000000000000e+00 -2.100000000000e+01
3.149693828776e+00 0.000000000000e+00 -2.000000000000e+01
2.904500759404e+00 0.000000000000e+00 -2.100000000000e+01
2.904500759404e+00 0.000000000000e+00 -2.000000000000e+01
2.670225347514e+00 0.000000000000e+00 -2.100000000000e+01
2.670225347514e+00 0.000000000000e+00 -2.000000000000e+01
2.446381464989e+00 0.000000000000e+00 -2.100000000000e+01
[...]
POINT_DATA 2478
SCALARS PRESSURE1 double 1
LOOKUP_TABLE default
3.045026225772e+05
3.143126225772e+05
3.134390031494e+05
3.036290031494e+05
3.241226225772e+05
3.232490031494e+05
3.339326225772e+05
3.330590031494e+05
3.437426225772e+05
3.428690031494e+05
3.535526225772e+05
3.526790031494e+05
3.633626225772e+05
3.624890031495e+05
3.731726225772e+05
3.722990031494e+05
3.829826225772e+05
3.821090031494e+05
3.927926225772e+05
3.919190031494e+05
4.026026225772e+05
4.017290031494e+05
4.124126225772e+05
4.115390031494e+05
4.222226225772e+05
4.213490031494e+05
4.320326225772e+05
4.311590031494e+05
4.418426225772e+05
4.409690031495e+05
4.516526225772e+05
4.507790031494e+05
4.614626225772e+05
4.605890031494e+05
4.712726225772e+05
4.703990031494e+05
4.810826225772e+05
4.802090031494e+05
4.908926225772e+05
4.900190031494e+05
5.007026225772e+05
4.998290031494e+05
3.125653837216e+05
3.027553837216e+05
3.223753837216e+05
3.321853837217e+05
3.419953837217e+05
3.518053837217e+05
3.616153837217e+05
3.714253837217e+05
3.812353837217e+05
3.910453837217e+05
4.008553837217e+05
4.106653837217e+05
4.204753837217e+05
4.302853837217e+05
4.400953837217e+05
4.499053837217e+05
4.597153837217e+05
4.695253837217e+05
4.793353837216e+05
4.891453837216e+05
4.989553837216e+05
3.120412120650e+05
3.022312120650e+05
3.218512120650e+05
3.316612120650e+05
3.414712120650e+05
3.512812120650e+05
3.610912120650e+05
3.709012120650e+05
3.807112120650e+05
3.905212120650e+05
4.003312120650e+05
4.101412120650e+05
4.199512120650e+05
4.297612120650e+05
4.395712120650e+05
4.493812120650e+05
4.591912120650e+05
4.690012120650e+05
4.788112120650e+05
4.886212120650e+05
4.984312120650e+05
3.060100000000e+05
2.962000000000e+05
3.060744532012e+05
2.962644532012e+05
3.061391476512e+05
2.963291476512e+05
3.062040965343e+05
2.963940965343e+05
3.062693138598e+05
2.964593138598e+05
3.063348145245e+05
2.965248145245e+05
3.064006143812e+05
2.965906143812e+05
3.064667303143e+05
2.966567303143e+05
3.065331803221e+05
2.967231803221e+05
3.065999836079e+05
2.967899836079e+05
3.066671606808e+05
2.968571606808e+05
3.067347334662e+05
2.969247334662e+05
3.068027254288e+05
2.969927254288e+05
3.068711617092e+05
2.970611617092e+05
3.069400692757e+05
2.971300692757e+05
3.070094770932e+05
2.971994770932e+05
3.070794163130e+05
2.972694163130e+05
3.071499204845e+05
2.973399204845e+05
3.072210257938e+05
2.974110257938e+05
3.072927713324e+05
2.974827713324e+05
3.073651994014e+05
2.975551994014e+05
3.074383558557e+05
2.976283558557e+05
3.075122904965e+05
2.977022904965e+05
3.075870575192e+05
2.977770575192e+05
3.076627160267e+05
2.978527160267e+05
3.077393306198e+05
2.979293306198e+05
3.078169720800e+05
2.980069720800e+05
3.078957181608e+05
2.980857181608e+05
3.079756545109e+05
2.981656545109e+05
3.080568757554e+05
2.982468757554e+05
3.081394867686e+05
2.983294867686e+05
3.082236041817e+05
2.984136041817e+05
3.083093581784e+05
2.984993581784e+05
3.083968946473e+05
2.985868946473e+05
3.084863777805e+05
2.986763777805e+05
3.085779932331e+05
2.987679932331e+05
3.086719519963e+05
2.988619519963e+05
3.087684951863e+05
2.989584951863e+05
3.088679000225e+05
2.990579000225e+05
3.089704873672e+05
2.991604873672e+05
3.090766313435e+05
2.992666313435e+05
3.091867717597e+05
2.993767717597e+05
3.093014303831e+05
2.994914303831e+05
3.094212325892e+05
2.996112325892e+05
3.095469366681e+05
2.997369366681e+05
3.096794742861e+05
2.998694742861e+05
3.098200076156e+05
3.000100076156e+05
3.099700121173e+05
3.001600121173e+05
3.101314001560e+05
3.003214001561e+05
3.103067122691e+05
3.004967122691e+05
3.104994259781e+05
3.006894259781e+05
3.107144809732e+05
3.009044809732e+05
3.109592322447e+05
3.011492322447e+05
3.112453310919e+05
3.014353310918e+05
3.115928800317e+05
3.017828800317e+05
3.158200000000e+05
3.158844532012e+05
3.159491476512e+05
3.160140965343e+05
3.160793138598e+05
3.161448145245e+05
3.162106143812e+05
3.162767303143e+05
3.163431803221e+05
3.164099836079e+05
3.164771606808e+05
3.165447334662e+05
3.166127254288e+05
3.166811617092e+05
3.167500692757e+05
3.168194770932e+05
3.168894163130e+05
3.169599204845e+05
3.170310257938e+05
3.171027713324e+05
3.171751994014e+05
3.172483558557e+05
3.173222904965e+05
3.173970575192e+05
3.174727160267e+05
3.175493306198e+05
3.176269720800e+05
3.177057181608e+05
3.177856545109e+05
3.178668757554e+05
3.179494867686e+05
3.180336041817e+05
3.181193581784e+05
3.182068946473e+05
3.182963777805e+05
3.183879932331e+05
3.184819519963e+05
3.185784951863e+05
3.186779000225e+05
3.187804873672e+05
3.188866313435e+05
3.189967717597e+05
3.191114303831e+05
3.192312325892e+05
3.193569366681e+05
3.194894742861e+05
3.196300076156e+05
3.197800121173e+05
3.199414001561e+05
3.201167122691e+05
3.203094259781e+05
3.205244809732e+05
3.207692322447e+05
3.210553310919e+05
3.214028800317e+05
3.256300000000e+05
3.256944532012e+05
3.257591476512e+05
3.258240965343e+05
3.258893138598e+05
3.259548145245e+05
3.260206143812e+05
3.260867303143e+05
3.261531803221e+05
3.262199836079e+05
3.262871606808e+05
3.263547334662e+05
3.264227254288e+05
3.264911617092e+05
3.265600692757e+05
3.266294770932e+05
3.266994163130e+05
3.267699204845e+05
3.268410257938e+05
3.269127713324e+05
3.269851994014e+05
3.270583558557e+05
3.271322904965e+05
3.272070575192e+05
3.272827160267e+05
3.273593306198e+05
3.274369720800e+05
3.275157181608e+05
3.275956545109e+05
3.276768757554e+05
3.277594867686e+05
3.278436041817e+05
3.279293581784e+05
3.280168946473e+05
3.281063777805e+05
3.281979932331e+05
3.282919519963e+05
3.283884951863e+05
3.284879000225e+05
3.285904873672e+05
3.286966313435e+05
3.288067717597e+05
3.289214303831e+05
3.290412325892e+05
3.291669366681e+05
3.292994742861e+05
3.294400076156e+05
3.295900121174e+05
3.297514001561e+05
3.299267122691e+05
3.301194259781e+05
3.303344809732e+05
3.305792322447e+05
3.308653310919e+05
3.312128800317e+05
3.354400000000e+05
3.355044532012e+05
3.355691476512e+05
3.356340965343e+05
3.356993138598e+05
3.357648145245e+05
3.358306143812e+05
3.358967303143e+05
3.359631803221e+05
3.360299836079e+05
3.360971606808e+05
3.361647334662e+05
3.362327254288e+05
3.363011617092e+05
3.363700692757e+05
3.364394770932e+05
3.365094163130e+05
3.365799204845e+05
3.366510257938e+05
3.367227713324e+05
3.367951994014e+05
3.368683558557e+05
3.369422904965e+05
3.370170575192e+05
3.370927160267e+05
3.371693306198e+05
3.372469720800e+05
3.373257181608e+05
3.374056545109e+05
3.374868757554e+05
3.375694867686e+05
3.376536041817e+05
3.377393581784e+05
3.378268946473e+05
3.379163777805e+05
3.380079932331e+05
3.381019519963e+05
3.381984951863e+05
3.382979000225e+05
3.384004873672e+05
3.385066313435e+05
3.386167717597e+05
3.387314303831e+05
3.388512325892e+05
3.389769366681e+05
3.391094742861e+05
3.392500076156e+05
3.394000121174e+05
3.395614001561e+05
3.397367122691e+05
3.399294259781e+05
3.401444809732e+05
3.403892322447e+05
3.406753310919e+05
3.410228800317e+05
3.452500000000e+05
3.453144532012e+05
3.453791476512e+05
3.454440965343e+05
3.455093138598e+05
3.455748145245e+05
3.456406143812e+05
3.457067303143e+05
3.457731803221e+05
3.458399836079e+05
3.459071606808e+05
3.459747334662e+05
3.460427254288e+05
3.461111617092e+05
3.461800692757e+05
3.462494770932e+05
3.463194163130e+05
3.463899204845e+05
3.464610257938e+05
3.465327713324e+05
3.466051994014e+05
3.466783558557e+05
3.467522904965e+05
3.468270575192e+05
3.469027160267e+05
3.469793306198e+05
3.470569720800e+05
3.471357181608e+05
3.472156545109e+05
3.472968757554e+05
3.473794867686e+05
3.474636041817e+05
3.475493581784e+05
3.476368946473e+05
3.477263777805e+05
3.478179932331e+05
3.479119519963e+05
3.480084951863e+05
3.481079000225e+05
3.482104873672e+05
3.483166313435e+05
3.484267717597e+05
3.485414303831e+05
3.486612325892e+05
3.487869366682e+05
3.489194742861e+05
3.490600076156e+05
3.492100121174e+05
3.493714001561e+05
3.495467122691e+05
3.497394259781e+05
3.499544809732e+05
3.501992322447e+05
3.504853310919e+05
3.508328800317e+05
3.550600000000e+05
3.551244532012e+05
3.551891476512e+05
3.552540965343e+05
3.553193138598e+05
3.553848145245e+05
3.554506143812e+05
3.555167303143e+05
3.555831803221e+05
3.556499836079e+05
3.557171606808e+05
3.557847334662e+05
3.558527254288e+05
3.559211617092e+05
3.559900692757e+05
3.560594770932e+05
3.561294163130e+05
3.561999204845e+05
3.562710257938e+05
3.563427713324e+05
3.564151994014e+05
3.564883558557e+05
3.565622904965e+05
3.566370575192e+05
3.567127160267e+05
3.567893306198e+05
3.568669720800e+05
3.569457181608e+05
3.570256545109e+05
3.571068757554e+05
3.571894867686e+05
3.572736041817e+05
3.573593581784e+05
3.574468946473e+05
3.575363777805e+05
3.576279932331e+05
3.577219519963e+05
3.578184951863e+05
3.579179000225e+05
3.580204873672e+05
3.581266313435e+05
3.582367717597e+05
3.583514303831e+05
3.584712325892e+05
3.585969366682e+05
3.587294742861e+05
3.588700076156e+05
3.590200121174e+05
3.591814001561e+05
3.593567122691e+05
3.595494259781e+05
3.597644809732e+05
3.600092322447e+05
3.602953310919e+05
3.606428800317e+05
3.648700000000e+05
3.649344532012e+05
3.649991476512e+05
3.650640965343e+05
3.651293138598e+05
3.651948145245e+05
3.652606143812e+05
3.653267303143e+05
3.653931803221e+05
3.654599836079e+05
3.655271606808e+05
3.655947334662e+05
3.656627254288e+05
3.657311617092e+05
3.658000692757e+05
3.658694770932e+05
3.659394163130e+05
3.660099204845e+05
3.660810257938e+05
3.661527713324e+05
3.662251994014e+05
3.662983558557e+05
3.663722904965e+05
3.664470575192e+05
3.665227160267e+05
3.665993306198e+05
3.666769720800e+05
3.667557181608e+05
3.668356545109e+05
3.669168757554e+05
3.669994867686e+05
3.670836041817e+05
3.671693581784e+05
3.672568946473e+05
3.673463777805e+05
3.674379932331e+05
3.675319519963e+05
3.676284951863e+05
3.677279000225e+05
3.678304873672e+05
3.679366313435e+05
3.680467717597e+05
3.681614303831e+05
3.682812325892e+05
3.684069366681e+05
3.685394742861e+05
3.686800076156e+05
3.688300121174e+05
3.689914001561e+05
3.691667122691e+05
3.693594259781e+05
3.695744809732e+05
3.698192322447e+05
3.701053310919e+05
3.704528800317e+05
3.746800000000e+05
3.747444532012e+05
3.748091476512e+05
3.748740965343e+05
3.749393138598e+05
3.750048145245e+05
3.750706143812e+05
3.751367303143e+05
3.752031803221e+05
3.752699836079e+05
3.753371606808e+05
3.754047334662e+05
3.754727254288e+05
3.755411617092e+05
3.756100692757e+05
3.756794770932e+05
3.757494163130e+05
3.758199204845e+05
3.758910257938e+05
3.759627713324e+05
3.760351994014e+05
3.761083558557e+05
3.761822904965e+05
3.762570575192e+05
3.763327160267e+05
3.764093306198e+05
3.764869720800e+05
3.765657181608e+05
3.766456545109e+05
3.767268757554e+05
3.768094867686e+05
3.768936041817e+05
3.769793581784e+05
3.770668946473e+05
3.771563777805e+05
3.772479932331e+05
3.773419519963e+05
3.774384951863e+05
3.775379000225e+05
3.776404873672e+05
3.777466313435e+05
3.778567717597e+05
3.779714303831e+05
3.780912325892e+05
3.782169366681e+05
3.783494742861e+05
3.784900076156e+05
3.786400121174e+05
3.788014001561e+05
3.789767122691e+05
3.791694259781e+05
3.793844809732e+05
3.796292322447e+05
3.799153310919e+05
3.802628800317e+05
3.844900000000e+05
3.845544532012e+05
3.846191476512e+05
3.846840965343e+05
3.847493138598e+05
3.848148145245e+05
3.848806143812e+05
3.849467303143e+05
3.850131803221e+05
3.850799836079e+05
3.851471606808e+05
3.852147334662e+05
3.852827254288e+05
3.853511617092e+05
3.854200692757e+05
3.854894770932e+05
3.855594163130e+05
3.856299204845e+05
3.857010257938e+05
3.857727713324e+05
3.858451994014e+05
3.859183558557e+05
3.859922904965e+05
3.860670575192e+05
3.861427160267e+05
3.862193306198e+05
3.862969720800e+05
3.863757181608e+05
3.864556545109e+05
3.865368757554e+05
3.866194867686e+05
3.867036041817e+05
3.867893581784e+05
3.868768946473e+05
3.869663777805e+05
3.870579932331e+05
3.871519519963e+05
3.872484951863e+05
3.873479000225e+05
3.874504873672e+05
3.875566313435e+05
3.876667717597e+05
3.877814303831e+05
3.879012325892e+05
3.880269366681e+05
3.881594742861e+05
3.883000076156e+05
3.884500121174e+05
3.886114001561e+05
3.887867122691e+05
3.889794259781e+05
3.891944809732e+05
3.894392322447e+05
3.897253310919e+05
3.900728800317e+05
3.943000000000e+05
3.943644532012e+05
3.944291476512e+05
3.944940965343e+05
3.945593138598e+05
3.946248145245e+05
3.946906143812e+05
3.947567303143e+05
3.948231803221e+05
3.948899836079e+05
3.949571606808e+05
3.950247334662e+05
3.950927254288e+05
3.951611617092e+05
3.952300692757e+05
3.952994770932e+05
3.953694163130e+05
3.954399204845e+05
3.955110257938e+05
3.955827713324e+05
3.956551994014e+05
3.957283558557e+05
3.958022904965e+05
3.958770575192e+05
3.959527160267e+05
3.960293306198e+05
3.961069720800e+05
3.961857181608e+05
3.962656545109e+05
3.963468757554e+05
3.964294867686e+05
3.965136041817e+05
3.965993581784e+05
3.966868946473e+05
3.967763777805e+05
3.968679932331e+05
3.969619519963e+05
3.970584951863e+05
3.971579000225e+05
3.972604873672e+05
3.973666313435e+05
3.974767717597e+05
3.975914303831e+05
3.977112325892e+05
3.978369366682e+05
3.979694742861e+05
3.981100076156e+05
3.982600121174e+05
3.984214001561e+05
3.985967122691e+05
3.987894259781e+05
3.990044809732e+05
3.992492322447e+05
3.995353310919e+05
3.998828800317e+05
4.041100000000e+05
4.041744532012e+05
4.042391476512e+05
4.043040965343e+05
4.043693138598e+05
4.044348145245e+05
4.045006143812e+05
4.045667303143e+05
4.046331803221e+05
4.046999836079e+05
4.047671606808e+05
4.048347334662e+05
4.049027254288e+05
4.049711617092e+05
4.050400692757e+05
4.051094770932e+05
4.051794163130e+05
4.052499204845e+05
4.053210257938e+05
4.053927713324e+05
4.054651994014e+05
4.055383558557e+05
4.056122904965e+05
4.056870575192e+05
4.057627160267e+05
4.058393306198e+05
4.059169720800e+05
4.059957181608e+05
4.060756545109e+05
4.061568757554e+05
4.062394867686e+05
4.063236041817e+05
4.064093581784e+05
4.064968946473e+05
4.065863777805e+05
4.066779932331e+05
4.067719519963e+05
4.068684951863e+05
4.069679000225e+05
4.070704873672e+05
4.071766313435e+05
4.072867717597e+05
4.074014303831e+05
4.075212325892e+05
4.076469366682e+05
4.077794742861e+05
4.079200076156e+05
4.080700121174e+05
4.082314001561e+05
4.084067122691e+05
4.085994259781e+05
4.088144809732e+05
4.090592322447e+05
4.093453310919e+05
4.096928800317e+05
4.139200000000e+05
4.139844532012e+05
4.140491476512e+05
4.141140965343e+05
4.141793138598e+05
4.142448145245e+05
4.143106143812e+05
4.143767303143e+05
4.144431803221e+05
4.145099836079e+05
4.145771606808e+05
4.146447334662e+05
4.147127254288e+05
4.147811617092e+05
4.148500692757e+05
4.149194770932e+05
4.149894163130e+05
4.150599204845e+05
4.151310257938e+05
4.152027713324e+05
4.152751994014e+05
4.153483558557e+05
4.154222904965e+05
4.154970575192e+05
4.155727160267e+05
4.156493306198e+05
4.157269720800e+05
4.158057181608e+05
4.158856545109e+05
4.159668757554e+05
4.160494867686e+05
4.161336041817e+05
4.162193581784e+05
4.163068946473e+05
4.163963777805e+05
4.164879932331e+05
4.165819519963e+05
4.166784951863e+05
4.167779000225e+05
4.168804873672e+05
4.169866313435e+05
4.170967717597e+05
4.172114303831e+05
4.173312325892e+05
4.174569366682e+05
4.175894742861e+05
4.177300076156e+05
4.178800121174e+05
4.180414001561e+05
4.182167122691e+05
4.184094259781e+05
4.186244809732e+05
4.188692322447e+05
4.191553310919e+05
4.195028800317e+05
4.237300000000e+05
4.237944532012e+05
4.238591476512e+05
4.239240965343e+05
4.239893138598e+05
4.240548145245e+05
4.241206143812e+05
4.241867303143e+05
4.242531803221e+05
4.243199836079e+05
4.243871606808e+05
4.244547334662e+05
4.245227254288e+05
4.245911617092e+05
4.246600692757e+05
4.247294770932e+05
4.247994163130e+05
4.248699204845e+05
4.249410257938e+05
4.250127713324e+05
4.250851994014e+05
4.251583558557e+05
4.252322904965e+05
4.253070575192e+05
4.253827160267e+05
4.254593306198e+05
4.255369720800e+05
4.256157181608e+05
4.256956545109e+05
4.257768757554e+05
4.258594867686e+05
4.259436041817e+05
4.260293581784e+05
4.261168946473e+05
4.262063777805e+05
4.262979932331e+05
4.263919519963e+05
4.264884951863e+05
4.265879000225e+05
4.266904873672e+05
4.267966313435e+05
4.269067717597e+05
4.270214303831e+05
4.271412325892e+05
4.272669366682e+05
4.273994742861e+05
4.275400076156e+05
4.276900121174e+05
4.278514001561e+05
4.280267122691e+05
4.282194259781e+05
4.284344809732e+05
4.286792322447e+05
4.289653310919e+05
4.293128800317e+05
4.335400000000e+05
4.336044532012e+05
4.336691476512e+05
4.337340965343e+05
4.337993138598e+05
4.338648145245e+05
4.339306143812e+05
4.339967303143e+05
4.340631803221e+05
4.341299836079e+05
4.341971606808e+05
4.342647334662e+05
4.343327254288e+05
4.344011617092e+05
4.344700692757e+05
4.345394770932e+05
4.346094163130e+05
4.346799204845e+05
4.347510257938e+05
4.348227713324e+05
4.348951994014e+05
4.349683558557e+05
4.350422904965e+05
4.351170575192e+05
4.351927160267e+05
4.352693306198e+05
4.353469720800e+05
4.354257181608e+05
4.355056545109e+05
4.355868757554e+05
4.356694867686e+05
4.357536041817e+05
4.358393581784e+05
4.359268946473e+05
4.360163777805e+05
4.361079932331e+05
4.362019519963e+05
4.362984951863e+05
4.363979000225e+05
4.365004873672e+05
4.366066313435e+05
4.367167717597e+05
4.368314303831e+05
4.369512325892e+05
4.370769366682e+05
4.372094742861e+05
4.373500076156e+05
4.375000121174e+05
4.376614001561e+05
4.378367122691e+05
4.380294259781e+05
4.382444809732e+05
4.384892322447e+05
4.387753310919e+05
4.391228800317e+05
4.433500000000e+05
4.434144532012e+05
4.434791476512e+05
4.435440965343e+05
4.436093138598e+05
4.436748145245e+05
4.437406143812e+05
4.438067303143e+05
4.438731803221e+05
4.439399836079e+05
4.440071606808e+05
4.440747334662e+05
4.441427254288e+05
4.442111617092e+05
4.442800692757e+05
4.443494770932e+05
4.444194163130e+05
4.444899204845e+05
4.445610257938e+05
4.446327713324e+05
4.447051994014e+05
4.447783558557e+05
4.448522904965e+05
4.449270575192e+05
4.450027160267e+05
4.450793306198e+05
4.451569720800e+05
4.452357181608e+05
4.453156545109e+05
4.453968757554e+05
4.454794867686e+05
4.455636041817e+05
4.456493581784e+05
4.457368946473e+05
4.458263777805e+05
4.459179932331e+05
4.460119519963e+05
4.461084951863e+05
4.462079000225e+05
4.463104873672e+05
4.464166313435e+05
4.465267717597e+05
4.466414303831e+05
4.467612325892e+05
4.468869366682e+05
4.470194742861e+05
4.471600076156e+05
4.473100121174e+05
4.474714001561e+05
4.476467122691e+05
4.478394259781e+05
4.480544809732e+05
4.482992322447e+05
4.485853310919e+05
4.489328800317e+05
4.531600000000e+05
4.532244532012e+05
4.532891476512e+05
4.533540965343e+05
4.534193138598e+05
4.534848145245e+05
4.535506143812e+05
4.536167303143e+05
4.536831803220e+05
4.537499836079e+05
4.538171606808e+05
4.538847334662e+05
4.539527254288e+05
4.540211617092e+05
4.540900692757e+05
4.541594770932e+05
4.542294163130e+05
4.542999204845e+05
4.543710257938e+05
4.544427713324e+05
4.545151994014e+05
4.545883558557e+05
4.546622904965e+05
4.547370575192e+05
4.548127160267e+05
4.548893306198e+05
4.549669720800e+05
4.550457181608e+05
4.551256545109e+05
4.552068757554e+05
4.552894867686e+05
4.553736041817e+05
4.554593581784e+05
4.555468946473e+05
4.556363777805e+05
4.557279932331e+05
4.558219519963e+05
4.559184951863e+05
4.560179000225e+05
4.561204873672e+05
4.562266313435e+05
4.563367717597e+05
4.564514303831e+05
4.565712325892e+05
4.566969366682e+05
4.568294742861e+05
4.569700076156e+05
4.571200121174e+05
4.572814001561e+05
4.574567122691e+05
4.576494259781e+05
4.578644809732e+05
4.581092322447e+05
4.583953310919e+05
4.587428800317e+05
4.629700000000e+05
4.630344532012e+05
4.630991476512e+05
4.631640965343e+05
4.632293138598e+05
4.632948145245e+05
4.633606143812e+05
4.634267303143e+05
4.634931803220e+05
4.635599836079e+05
4.636271606808e+05
4.636947334662e+05
4.637627254288e+05
4.638311617092e+05
4.639000692757e+05
4.639694770932e+05
4.640394163130e+05
4.641099204845e+05
4.641810257938e+05
4.642527713324e+05
4.643251994014e+05
4.643983558557e+05
4.644722904965e+05
4.645470575192e+05
4.646227160267e+05
4.646993306198e+05
4.647769720800e+05
4.648557181608e+05
4.649356545109e+05
4.650168757554e+05