# vtk DataFile Version 3.0
Unstructured Grid from OpenGeoSys
ASCII
DATASET UNSTRUCTURED_GRID
FIELD TimesAndCycles 2
TIME 1 1 double
8.640000000000e+04
CYLCE 1 1 long
1
POINTS 2478 double
5.000000000000e-02 0.000000000000e+00 -2.000000000000e+01
5.000000000000e-02 0.000000000000e+00 -2.100000000000e+01
1.000000000000e-01 0.000000000000e+00 -2.100000000000e+01
1.000000000000e-01 0.000000000000e+00 -2.000000000000e+01
5.000000000000e-02 0.000000000000e+00 -2.200000000000e+01
1.000000000000e-01 0.000000000000e+00 -2.200000000000e+01
5.000000000000e-02 0.000000000000e+00 -2.300000000000e+01
1.000000000000e-01 0.000000000000e+00 -2.300000000000e+01
5.000000000000e-02 0.000000000000e+00 -2.400000000000e+01
1.000000000000e-01 0.000000000000e+00 -2.400000000000e+01
5.000000000000e-02 0.000000000000e+00 -2.500000000000e+01
1.000000000000e-01 0.000000000000e+00 -2.500000000000e+01
5.000000000000e-02 0.000000000000e+00 -2.600000000000e+01
1.000000000000e-01 0.000000000000e+00 -2.600000000000e+01
5.000000000000e-02 0.000000000000e+00 -2.700000000000e+01
1.000000000000e-01 0.000000000000e+00 -2.700000000000e+01
5.000000000000e-02 0.000000000000e+00 -2.800000000000e+01
1.000000000000e-01 0.000000000000e+00 -2.800000000000e+01
5.000000000000e-02 0.000000000000e+00 -2.900000000000e+01
1.000000000000e-01 0.000000000000e+00 -2.900000000000e+01
5.000000000000e-02 0.000000000000e+00 -3.000000000000e+01
1.000000000000e-01 0.000000000000e+00 -3.000000000000e+01
5.000000000000e-02 0.000000000000e+00 -3.100000000000e+01
1.000000000000e-01 0.000000000000e+00 -3.100000000000e+01
5.000000000000e-02 0.000000000000e+00 -3.200000000000e+01
1.000000000000e-01 0.000000000000e+00 -3.200000000000e+01
5.000000000000e-02 0.000000000000e+00 -3.300000000000e+01
1.000000000000e-01 0.000000000000e+00 -3.300000000000e+01
5.000000000000e-02 0.000000000000e+00 -3.400000000000e+01
1.000000000000e-01 0.000000000000e+00 -3.400000000000e+01
5.000000000000e-02 0.000000000000e+00 -3.500000000000e+01
1.000000000000e-01 0.000000000000e+00 -3.500000000000e+01
5.000000000000e-02 0.000000000000e+00 -3.600000000000e+01
1.000000000000e-01 0.000000000000e+00 -3.600000000000e+01
5.000000000000e-02 0.000000000000e+00 -3.700000000000e+01
1.000000000000e-01 0.000000000000e+00 -3.700000000000e+01
5.000000000000e-02 0.000000000000e+00 -3.800000000000e+01
1.000000000000e-01 0.000000000000e+00 -3.800000000000e+01
5.000000000000e-02 0.000000000000e+00 -3.900000000000e+01
1.000000000000e-01 0.000000000000e+00 -3.900000000000e+01
5.000000000000e-02 0.000000000000e+00 -4.000000000000e+01
1.000000000000e-01 0.000000000000e+00 -4.000000000000e+01
2.000000000000e-01 0.000000000000e+00 -2.100000000000e+01
2.000000000000e-01 0.000000000000e+00 -2.000000000000e+01
2.000000000000e-01 0.000000000000e+00 -2.200000000000e+01
2.000000000000e-01 0.000000000000e+00 -2.300000000000e+01
2.000000000000e-01 0.000000000000e+00 -2.400000000000e+01
2.000000000000e-01 0.000000000000e+00 -2.500000000000e+01
2.000000000000e-01 0.000000000000e+00 -2.600000000000e+01
2.000000000000e-01 0.000000000000e+00 -2.700000000000e+01
2.000000000000e-01 0.000000000000e+00 -2.800000000000e+01
2.000000000000e-01 0.000000000000e+00 -2.900000000000e+01
2.000000000000e-01 0.000000000000e+00 -3.000000000000e+01
2.000000000000e-01 0.000000000000e+00 -3.100000000000e+01
2.000000000000e-01 0.000000000000e+00 -3.200000000000e+01
2.000000000000e-01 0.000000000000e+00 -3.300000000000e+01
2.000000000000e-01 0.000000000000e+00 -3.400000000000e+01
2.000000000000e-01 0.000000000000e+00 -3.500000000000e+01
2.000000000000e-01 0.000000000000e+00 -3.600000000000e+01
2.000000000000e-01 0.000000000000e+00 -3.700000000000e+01
2.000000000000e-01 0.000000000000e+00 -3.800000000000e+01
2.000000000000e-01 0.000000000000e+00 -3.900000000000e+01
2.000000000000e-01 0.000000000000e+00 -4.000000000000e+01
3.000000000000e-01 0.000000000000e+00 -2.100000000000e+01
3.000000000000e-01 0.000000000000e+00 -2.000000000000e+01
3.000000000000e-01 0.000000000000e+00 -2.200000000000e+01
3.000000000000e-01 0.000000000000e+00 -2.300000000000e+01
3.000000000000e-01 0.000000000000e+00 -2.400000000000e+01
3.000000000000e-01 0.000000000000e+00 -2.500000000000e+01
3.000000000000e-01 0.000000000000e+00 -2.600000000000e+01
3.000000000000e-01 0.000000000000e+00 -2.700000000000e+01
3.000000000000e-01 0.000000000000e+00 -2.800000000000e+01
3.000000000000e-01 0.000000000000e+00 -2.900000000000e+01
3.000000000000e-01 0.000000000000e+00 -3.000000000000e+01
3.000000000000e-01 0.000000000000e+00 -3.100000000000e+01
3.000000000000e-01 0.000000000000e+00 -3.200000000000e+01
3.000000000000e-01 0.000000000000e+00 -3.300000000000e+01
3.000000000000e-01 0.000000000000e+00 -3.400000000000e+01
3.000000000000e-01 0.000000000000e+00 -3.500000000000e+01
3.000000000000e-01 0.000000000000e+00 -3.600000000000e+01
3.000000000000e-01 0.000000000000e+00 -3.700000000000e+01
3.000000000000e-01 0.000000000000e+00 -3.800000000000e+01
3.000000000000e-01 0.000000000000e+00 -3.900000000000e+01
3.000000000000e-01 0.000000000000e+00 -4.000000000000e+01
3.017908699421e+01 0.000000000000e+00 -2.100000000000e+01
3.017908699421e+01 0.000000000000e+00 -2.000000000000e+01
2.873036212330e+01 0.000000000000e+00 -2.100000000000e+01
2.873036212330e+01 0.000000000000e+00 -2.000000000000e+01
2.734614430377e+01 0.000000000000e+00 -2.100000000000e+01
2.734614430377e+01 0.000000000000e+00 -2.000000000000e+01
2.602356124444e+01 0.000000000000e+00 -2.100000000000e+01
2.602356124444e+01 0.000000000000e+00 -2.000000000000e+01
2.475986854800e+01 0.000000000000e+00 -2.100000000000e+01
2.475986854800e+01 0.000000000000e+00 -2.000000000000e+01
2.355244401630e+01 0.000000000000e+00 -2.100000000000e+01
2.355244401630e+01 0.000000000000e+00 -2.000000000000e+01
2.239878220923e+01 0.000000000000e+00 -2.100000000000e+01
2.239878220923e+01 0.000000000000e+00 -2.000000000000e+01
2.129648924588e+01 0.000000000000e+00 -2.100000000000e+01
2.129648924588e+01 0.000000000000e+00 -2.000000000000e+01
2.024327783711e+01 0.000000000000e+00 -2.100000000000e+01
2.024327783711e+01 0.000000000000e+00 -2.000000000000e+01
1.923696253941e+01 0.000000000000e+00 -2.100000000000e+01
1.923696253941e+01 0.000000000000e+00 -2.000000000000e+01
1.827545522004e+01 0.000000000000e+00 -2.100000000000e+01
1.827545522004e+01 0.000000000000e+00 -2.000000000000e+01
1.735676072407e+01 0.000000000000e+00 -2.100000000000e+01
1.735676072407e+01 0.000000000000e+00 -2.000000000000e+01
1.647897273441e+01 0.000000000000e+00 -2.100000000000e+01
1.647897273441e+01 0.000000000000e+00 -2.000000000000e+01
1.564026981610e+01 0.000000000000e+00 -2.100000000000e+01
1.564026981610e+01 0.000000000000e+00 -2.000000000000e+01
1.483891163683e+01 0.000000000000e+00 -2.100000000000e+01
1.483891163683e+01 0.000000000000e+00 -2.000000000000e+01
1.407323535568e+01 0.000000000000e+00 -2.100000000000e+01
1.407323535568e+01 0.000000000000e+00 -2.000000000000e+01
1.334165217268e+01 0.000000000000e+00 -2.100000000000e+01
1.334165217268e+01 0.000000000000e+00 -2.000000000000e+01
1.264264403200e+01 0.000000000000e+00 -2.100000000000e+01
1.264264403200e+01 0.000000000000e+00 -2.000000000000e+01
1.197476047194e+01 0.000000000000e+00 -2.100000000000e+01
1.197476047194e+01 0.000000000000e+00 -2.000000000000e+01
1.133661561520e+01 0.000000000000e+00 -2.100000000000e+01
1.133661561520e+01 0.000000000000e+00 -2.000000000000e+01
1.072688529313e+01 0.000000000000e+00 -2.100000000000e+01
1.072688529313e+01 0.000000000000e+00 -2.000000000000e+01
1.014430429803e+01 0.000000000000e+00 -2.100000000000e+01
1.014430429803e+01 0.000000000000e+00 -2.000000000000e+01
9.587663757842e+00 0.000000000000e+00 -2.100000000000e+01
9.587663757842e+00 0.000000000000e+00 -2.000000000000e+01
9.055808627670e+00 0.000000000000e+00 -2.100000000000e+01
9.055808627670e+00 0.000000000000e+00 -2.000000000000e+01
8.547635293055e+00 0.000000000000e+00 -2.100000000000e+01
8.547635293055e+00 0.000000000000e+00 -2.000000000000e+01
8.062089279933e+00 0.000000000000e+00 -2.100000000000e+01
8.062089279933e+00 0.000000000000e+00 -2.000000000000e+01
7.598163066571e+00 0.000000000000e+00 -2.100000000000e+01
7.598163066571e+00 0.000000000000e+00 -2.000000000000e+01
7.154893992937e+00 0.000000000000e+00 -2.100000000000e+01
7.154893992937e+00 0.000000000000e+00 -2.000000000000e+01
6.731362263145e+00 0.000000000000e+00 -2.100000000000e+01
6.731362263145e+00 0.000000000000e+00 -2.000000000000e+01
6.326689036858e+00 0.000000000000e+00 -2.100000000000e+01
6.326689036858e+00 0.000000000000e+00 -2.000000000000e+01
5.940034605670e+00 0.000000000000e+00 -2.100000000000e+01
5.940034605670e+00 0.000000000000e+00 -2.000000000000e+01
5.570596650682e+00 0.000000000000e+00 -2.100000000000e+01
5.570596650682e+00 0.000000000000e+00 -2.000000000000e+01
5.217608577672e+00 0.000000000000e+00 -2.100000000000e+01
5.217608577672e+00 0.000000000000e+00 -2.000000000000e+01
4.880337926390e+00 0.000000000000e+00 -2.100000000000e+01
4.880337926390e+00 0.000000000000e+00 -2.000000000000e+01
4.558084850681e+00 0.000000000000e+00 -2.100000000000e+01
4.558084850681e+00 0.000000000000e+00 -2.000000000000e+01
4.250180666284e+00 0.000000000000e+00 -2.100000000000e+01
4.250180666284e+00 0.000000000000e+00 -2.000000000000e+01
3.955986463295e+00 0.000000000000e+00 -2.100000000000e+01
3.955986463295e+00 0.000000000000e+00 -2.000000000000e+01
3.674891780407e+00 0.000000000000e+00 -2.100000000000e+01
3.674891780407e+00 0.000000000000e+00 -2.000000000000e+01
3.406313338193e+00 0.000000000000e+00 -2.100000000000e+01
3.406313338193e+00 0.000000000000e+00 -2.000000000000e+01
3.149693828776e+00 0.000000000000e+00 -2.100000000000e+01
3.149693828776e+00 0.000000000000e+00 -2.000000000000e+01
2.904500759404e+00 0.000000000000e+00 -2.100000000000e+01
2.904500759404e+00 0.000000000000e+00 -2.000000000000e+01
2.670225347514e+00 0.000000000000e+00 -2.100000000000e+01
2.670225347514e+00 0.000000000000e+00 -2.000000000000e+01
2.446381464989e+00 0.000000000000e+00 -2.100000000000e+01
[...]
POINT_DATA 2478
SCALARS PRESSURE1 double 1
LOOKUP_TABLE default
3.092142720759e+05
3.190242720760e+05
3.176548829681e+05
3.078448829680e+05
3.288342720759e+05
3.274648829681e+05
3.386442720759e+05
3.372748829681e+05
3.484542720760e+05
3.470848829681e+05
3.582642720760e+05
3.568948829681e+05
3.680742720760e+05
3.667048829681e+05
3.778842720760e+05
3.765148829681e+05
3.876942720760e+05
3.863248829681e+05
3.975042720760e+05
3.961348829681e+05
4.073142720760e+05
4.059448829681e+05
4.171242720760e+05
4.157548829681e+05
4.269342720760e+05
4.255648829681e+05
4.367442720760e+05
4.353748829681e+05
4.465542720760e+05
4.451848829681e+05
4.563642720760e+05
4.549948829681e+05
4.661742720760e+05
4.648048829681e+05
4.759842720759e+05
4.746148829681e+05
4.857942720759e+05
4.844248829681e+05
4.956042720760e+05
4.942348829681e+05
5.054142720759e+05
5.040448829680e+05
3.162854938602e+05
3.064754938602e+05
3.260954938602e+05
3.359054938602e+05
3.457154938603e+05
3.555254938602e+05
3.653354938602e+05
3.751454938603e+05
3.849554938603e+05
3.947654938603e+05
4.045754938603e+05
4.143854938603e+05
4.241954938603e+05
4.340054938603e+05
4.438154938602e+05
4.536254938602e+05
4.634354938603e+05
4.732454938602e+05
4.830554938602e+05
4.928654938602e+05
5.026754938602e+05
3.154638603955e+05
3.056538603955e+05
3.252738603955e+05
3.350838603955e+05
3.448938603955e+05
3.547038603955e+05
3.645138603955e+05
3.743238603956e+05
3.841338603956e+05
3.939438603955e+05
4.037538603955e+05
4.135638603955e+05
4.233738603956e+05
4.331838603956e+05
4.429938603955e+05
4.528038603955e+05
4.626138603955e+05
4.724238603955e+05
4.822338603955e+05
4.920438603955e+05
5.018538603955e+05
3.060100000000e+05
2.962000000000e+05
3.061110297035e+05
2.963010297035e+05
3.062124375617e+05
2.964024375617e+05
3.063142442412e+05
2.965042442412e+05
3.064164717013e+05
2.966064717013e+05
3.065191432925e+05
2.967091432925e+05
3.066222838641e+05
2.968122838641e+05
3.067259198820e+05
2.969159198820e+05
3.068300795583e+05
2.970200795583e+05
3.069347929943e+05
2.971247929943e+05
3.070400923375e+05
2.972300923375e+05
3.071460119557e+05
2.973360119557e+05
3.072525886297e+05
2.974425886297e+05
3.073598617672e+05
2.975498617672e+05
3.074678736406e+05
2.976578736406e+05
3.075766696522e+05
2.977666696522e+05
3.076862986311e+05
2.978762986311e+05
3.077968131657e+05
2.979868131657e+05
3.079082699774e+05
2.980982699774e+05
3.080207303417e+05
2.982107303417e+05
3.081342605650e+05
2.983242605650e+05
3.082489325245e+05
2.984389325245e+05
3.083648242831e+05
2.985548242831e+05
3.084820207914e+05
2.986720207914e+05
3.086006146925e+05
2.987906146925e+05
3.087207072478e+05
2.989107072477e+05
3.088424094061e+05
2.990324094061e+05
3.089658430454e+05
2.991558430454e+05
3.090911424191e+05
2.992811424191e+05
3.092184558510e+05
2.994084558510e+05
3.093479477305e+05
2.995379477305e+05
3.094798008758e+05
2.996698008758e+05
3.096142193482e+05
2.998042193482e+05
3.097514318268e+05
2.999414318268e+05
3.098916956810e+05
3.000816956810e+05
3.100353019229e+05
3.002253019229e+05
3.101825812791e+05
3.003725812791e+05
3.103339116967e+05
3.005239116967e+05
3.104897277141e+05
3.006797277141e+05
3.106505322795e+05
3.008405322795e+05
3.108169118269e+05
3.010069118269e+05
3.109895557512e+05
3.011795557512e+05
3.111692819169e+05
3.013592819169e+05
3.113570705933e+05
3.015470705933e+05
3.115541103924e+05
3.017441103924e+05
3.117618616907e+05
3.019518616907e+05
3.119821461815e+05
3.021721461815e+05
3.122172766334e+05
3.024072766334e+05
3.124702506577e+05
3.026602506577e+05
3.127450505196e+05
3.029350505196e+05
3.130471271969e+05
3.032371271969e+05
3.133842236013e+05
3.035742236013e+05
3.137678686012e+05
3.039578686012e+05
3.142163254837e+05
3.044063254837e+05
3.147611047292e+05
3.049511047291e+05
3.158200000000e+05
3.159210297035e+05
3.160224375617e+05
3.161242442412e+05
3.162264717013e+05
3.163291432925e+05
3.164322838641e+05
3.165359198820e+05
3.166400795583e+05
3.167447929943e+05
3.168500923375e+05
3.169560119557e+05
3.170625886297e+05
3.171698617672e+05
3.172778736406e+05
3.173866696522e+05
3.174962986311e+05
3.176068131657e+05
3.177182699774e+05
3.178307303417e+05
3.179442605650e+05
3.180589325245e+05
3.181748242831e+05
3.182920207914e+05
3.184106146925e+05
3.185307072478e+05
3.186524094061e+05
3.187758430454e+05
3.189011424191e+05
3.190284558510e+05
3.191579477305e+05
3.192898008758e+05
3.194242193482e+05
3.195614318268e+05
3.197016956810e+05
3.198453019229e+05
3.199925812791e+05
3.201439116967e+05
3.202997277141e+05
3.204605322795e+05
3.206269118269e+05
3.207995557512e+05
3.209792819169e+05
3.211670705933e+05
3.213641103924e+05
3.215718616908e+05
3.217921461815e+05
3.220272766334e+05
3.222802506577e+05
3.225550505196e+05
3.228571271969e+05
3.231942236013e+05
3.235778686012e+05
3.240263254837e+05
3.245711047291e+05
3.256300000000e+05
3.257310297035e+05
3.258324375617e+05
3.259342442412e+05
3.260364717013e+05
3.261391432925e+05
3.262422838641e+05
3.263459198820e+05
3.264500795583e+05
3.265547929943e+05
3.266600923375e+05
3.267660119557e+05
3.268725886297e+05
3.269798617672e+05
3.270878736406e+05
3.271966696522e+05
3.273062986311e+05
3.274168131657e+05
3.275282699774e+05
3.276407303417e+05
3.277542605650e+05
3.278689325245e+05
3.279848242831e+05
3.281020207914e+05
3.282206146925e+05
3.283407072478e+05
3.284624094061e+05
3.285858430454e+05
3.287111424191e+05
3.288384558510e+05
3.289679477305e+05
3.290998008758e+05
3.292342193482e+05
3.293714318268e+05
3.295116956810e+05
3.296553019229e+05
3.298025812791e+05
3.299539116967e+05
3.301097277141e+05
3.302705322795e+05
3.304369118269e+05
3.306095557512e+05
3.307892819169e+05
3.309770705933e+05
3.311741103924e+05
3.313818616908e+05
3.316021461815e+05
3.318372766334e+05
3.320902506577e+05
3.323650505196e+05
3.326671271970e+05
3.330042236013e+05
3.333878686013e+05
3.338363254838e+05
3.343811047292e+05
3.354400000000e+05
3.355410297035e+05
3.356424375617e+05
3.357442442412e+05
3.358464717013e+05
3.359491432925e+05
3.360522838641e+05
3.361559198820e+05
3.362600795583e+05
3.363647929943e+05
3.364700923375e+05
3.365760119557e+05
3.366825886297e+05
3.367898617672e+05
3.368978736406e+05
3.370066696522e+05
3.371162986311e+05
3.372268131657e+05
3.373382699774e+05
3.374507303417e+05
3.375642605650e+05
3.376789325245e+05
3.377948242831e+05
3.379120207914e+05
3.380306146925e+05
3.381507072478e+05
3.382724094061e+05
3.383958430454e+05
3.385211424191e+05
3.386484558510e+05
3.387779477305e+05
3.389098008758e+05
3.390442193482e+05
3.391814318268e+05
3.393216956810e+05
3.394653019229e+05
3.396125812791e+05
3.397639116967e+05
3.399197277141e+05
3.400805322795e+05
3.402469118269e+05
3.404195557512e+05
3.405992819169e+05
3.407870705933e+05
3.409841103924e+05
3.411918616908e+05
3.414121461815e+05
3.416472766334e+05
3.419002506577e+05
3.421750505196e+05
3.424771271970e+05
3.428142236013e+05
3.431978686013e+05
3.436463254838e+05
3.441911047292e+05
3.452500000000e+05
3.453510297035e+05
3.454524375617e+05
3.455542442412e+05
3.456564717013e+05
3.457591432925e+05
3.458622838641e+05
3.459659198820e+05
3.460700795583e+05
3.461747929943e+05
3.462800923375e+05
3.463860119557e+05
3.464925886297e+05
3.465998617672e+05
3.467078736406e+05
3.468166696522e+05
3.469262986311e+05
3.470368131657e+05
3.471482699774e+05
3.472607303417e+05
3.473742605650e+05
3.474889325245e+05
3.476048242831e+05
3.477220207914e+05
3.478406146925e+05
3.479607072478e+05
3.480824094061e+05
3.482058430454e+05
3.483311424191e+05
3.484584558510e+05
3.485879477305e+05
3.487198008758e+05
3.488542193482e+05
3.489914318268e+05
3.491316956810e+05
3.492753019229e+05
3.494225812791e+05
3.495739116967e+05
3.497297277141e+05
3.498905322795e+05
3.500569118269e+05
3.502295557512e+05
3.504092819169e+05
3.505970705934e+05
3.507941103924e+05
3.510018616908e+05
3.512221461815e+05
3.514572766334e+05
3.517102506577e+05
3.519850505196e+05
3.522871271970e+05
3.526242236013e+05
3.530078686013e+05
3.534563254838e+05
3.540011047292e+05
3.550600000000e+05
3.551610297035e+05
3.552624375617e+05
3.553642442412e+05
3.554664717013e+05
3.555691432925e+05
3.556722838641e+05
3.557759198820e+05
3.558800795583e+05
3.559847929943e+05
3.560900923375e+05
3.561960119557e+05
3.563025886297e+05
3.564098617672e+05
3.565178736406e+05
3.566266696522e+05
3.567362986311e+05
3.568468131657e+05
3.569582699774e+05
3.570707303417e+05
3.571842605650e+05
3.572989325245e+05
3.574148242831e+05
3.575320207914e+05
3.576506146925e+05
3.577707072478e+05
3.578924094061e+05
3.580158430454e+05
3.581411424191e+05
3.582684558510e+05
3.583979477305e+05
3.585298008758e+05
3.586642193482e+05
3.588014318268e+05
3.589416956810e+05
3.590853019229e+05
3.592325812791e+05
3.593839116967e+05
3.595397277141e+05
3.597005322795e+05
3.598669118269e+05
3.600395557512e+05
3.602192819169e+05
3.604070705934e+05
3.606041103924e+05
3.608118616908e+05
3.610321461815e+05
3.612672766334e+05
3.615202506577e+05
3.617950505196e+05
3.620971271970e+05
3.624342236013e+05
3.628178686013e+05
3.632663254838e+05
3.638111047292e+05
3.648700000000e+05
3.649710297035e+05
3.650724375617e+05
3.651742442412e+05
3.652764717013e+05
3.653791432925e+05
3.654822838641e+05
3.655859198820e+05
3.656900795583e+05
3.657947929943e+05
3.659000923375e+05
3.660060119557e+05
3.661125886297e+05
3.662198617672e+05
3.663278736406e+05
3.664366696522e+05
3.665462986311e+05
3.666568131657e+05
3.667682699774e+05
3.668807303417e+05
3.669942605650e+05
3.671089325245e+05
3.672248242831e+05
3.673420207914e+05
3.674606146925e+05
3.675807072478e+05
3.677024094061e+05
3.678258430454e+05
3.679511424191e+05
3.680784558510e+05
3.682079477305e+05
3.683398008758e+05
3.684742193482e+05
3.686114318268e+05
3.687516956810e+05
3.688953019229e+05
3.690425812791e+05
3.691939116967e+05
3.693497277141e+05
3.695105322795e+05
3.696769118269e+05
3.698495557512e+05
3.700292819169e+05
3.702170705934e+05
3.704141103924e+05
3.706218616908e+05
3.708421461815e+05
3.710772766334e+05
3.713302506577e+05
3.716050505196e+05
3.719071271970e+05
3.722442236013e+05
3.726278686013e+05
3.730763254838e+05
3.736211047292e+05
3.746800000000e+05
3.747810297035e+05
3.748824375617e+05
3.749842442412e+05
3.750864717013e+05
3.751891432925e+05
3.752922838641e+05
3.753959198820e+05
3.755000795583e+05
3.756047929943e+05
3.757100923375e+05
3.758160119557e+05
3.759225886297e+05
3.760298617672e+05
3.761378736406e+05
3.762466696522e+05
3.763562986311e+05
3.764668131657e+05
3.765782699774e+05
3.766907303417e+05
3.768042605650e+05
3.769189325245e+05
3.770348242831e+05
3.771520207914e+05
3.772706146925e+05
3.773907072478e+05
3.775124094061e+05
3.776358430454e+05
3.777611424191e+05
3.778884558510e+05
3.780179477305e+05
3.781498008758e+05
3.782842193482e+05
3.784214318268e+05
3.785616956810e+05
3.787053019229e+05
3.788525812791e+05
3.790039116967e+05
3.791597277141e+05
3.793205322795e+05
3.794869118269e+05
3.796595557512e+05
3.798392819169e+05
3.800270705934e+05
3.802241103924e+05
3.804318616908e+05
3.806521461815e+05
3.808872766334e+05
3.811402506577e+05
3.814150505196e+05
3.817171271970e+05
3.820542236013e+05
3.824378686013e+05
3.828863254838e+05
3.834311047292e+05
3.844900000000e+05
3.845910297035e+05
3.846924375617e+05
3.847942442412e+05
3.848964717013e+05
3.849991432925e+05
3.851022838641e+05
3.852059198820e+05
3.853100795583e+05
3.854147929943e+05
3.855200923375e+05
3.856260119557e+05
3.857325886297e+05
3.858398617672e+05
3.859478736406e+05
3.860566696522e+05
3.861662986311e+05
3.862768131657e+05
3.863882699774e+05
3.865007303417e+05
3.866142605650e+05
3.867289325245e+05
3.868448242831e+05
3.869620207914e+05
3.870806146925e+05
3.872007072478e+05
3.873224094061e+05
3.874458430454e+05
3.875711424191e+05
3.876984558510e+05
3.878279477305e+05
3.879598008758e+05
3.880942193482e+05
3.882314318268e+05
3.883716956810e+05
3.885153019229e+05
3.886625812791e+05
3.888139116967e+05
3.889697277141e+05
3.891305322795e+05
3.892969118269e+05
3.894695557512e+05
3.896492819169e+05
3.898370705934e+05
3.900341103924e+05
3.902418616908e+05
3.904621461815e+05
3.906972766334e+05
3.909502506577e+05
3.912250505196e+05
3.915271271970e+05
3.918642236013e+05
3.922478686013e+05
3.926963254838e+05
3.932411047292e+05
3.943000000000e+05
3.944010297035e+05
3.945024375617e+05
3.946042442412e+05
3.947064717013e+05
3.948091432925e+05
3.949122838641e+05
3.950159198820e+05
3.951200795583e+05
3.952247929943e+05
3.953300923375e+05
3.954360119557e+05
3.955425886297e+05
3.956498617672e+05
3.957578736406e+05
3.958666696522e+05
3.959762986311e+05
3.960868131657e+05
3.961982699773e+05
3.963107303417e+05
3.964242605650e+05
3.965389325245e+05
3.966548242831e+05
3.967720207914e+05
3.968906146925e+05
3.970107072478e+05
3.971324094061e+05
3.972558430454e+05
3.973811424191e+05
3.975084558510e+05
3.976379477305e+05
3.977698008758e+05
3.979042193482e+05
3.980414318268e+05
3.981816956810e+05
3.983253019229e+05
3.984725812791e+05
3.986239116967e+05
3.987797277141e+05
3.989405322795e+05
3.991069118269e+05
3.992795557512e+05
3.994592819169e+05
3.996470705934e+05
3.998441103924e+05
4.000518616908e+05
4.002721461815e+05
4.005072766334e+05
4.007602506577e+05
4.010350505196e+05
4.013371271970e+05
4.016742236013e+05
4.020578686013e+05
4.025063254838e+05
4.030511047292e+05
4.041100000000e+05
4.042110297035e+05
4.043124375617e+05
4.044142442412e+05
4.045164717013e+05
4.046191432925e+05
4.047222838641e+05
4.048259198820e+05
4.049300795583e+05
4.050347929943e+05
4.051400923375e+05
4.052460119557e+05
4.053525886297e+05
4.054598617672e+05
4.055678736406e+05
4.056766696522e+05
4.057862986311e+05
4.058968131657e+05
4.060082699773e+05
4.061207303417e+05
4.062342605650e+05
4.063489325245e+05
4.064648242831e+05
4.065820207914e+05
4.067006146925e+05
4.068207072478e+05
4.069424094061e+05
4.070658430454e+05
4.071911424191e+05
4.073184558510e+05
4.074479477305e+05
4.075798008758e+05
4.077142193482e+05
4.078514318268e+05
4.079916956810e+05
4.081353019229e+05
4.082825812791e+05
4.084339116967e+05
4.085897277141e+05
4.087505322795e+05
4.089169118269e+05
4.090895557512e+05
4.092692819169e+05
4.094570705934e+05
4.096541103924e+05
4.098618616908e+05
4.100821461815e+05
4.103172766334e+05
4.105702506577e+05
4.108450505196e+05
4.111471271970e+05
4.114842236013e+05
4.118678686013e+05
4.123163254838e+05
4.128611047292e+05
4.139200000000e+05
4.140210297035e+05
4.141224375617e+05
4.142242442412e+05
4.143264717013e+05
4.144291432925e+05
4.145322838641e+05
4.146359198820e+05
4.147400795583e+05
4.148447929943e+05
4.149500923375e+05
4.150560119557e+05
4.151625886297e+05
4.152698617672e+05
4.153778736406e+05
4.154866696522e+05
4.155962986311e+05
4.157068131657e+05
4.158182699773e+05
4.159307303417e+05
4.160442605650e+05
4.161589325245e+05
4.162748242831e+05
4.163920207914e+05
4.165106146925e+05
4.166307072478e+05
4.167524094061e+05
4.168758430454e+05
4.170011424191e+05
4.171284558510e+05
4.172579477305e+05
4.173898008758e+05
4.175242193482e+05
4.176614318268e+05
4.178016956810e+05
4.179453019229e+05
4.180925812791e+05
4.182439116967e+05
4.183997277141e+05
4.185605322795e+05
4.187269118269e+05
4.188995557512e+05
4.190792819169e+05
4.192670705934e+05
4.194641103924e+05
4.196718616908e+05
4.198921461815e+05
4.201272766334e+05
4.203802506577e+05
4.206550505196e+05
4.209571271970e+05
4.212942236013e+05
4.216778686013e+05
4.221263254838e+05
4.226711047292e+05
4.237300000000e+05
4.238310297035e+05
4.239324375617e+05
4.240342442412e+05
4.241364717013e+05
4.242391432925e+05
4.243422838641e+05
4.244459198820e+05
4.245500795583e+05
4.246547929943e+05
4.247600923375e+05
4.248660119557e+05
4.249725886297e+05
4.250798617672e+05
4.251878736406e+05
4.252966696522e+05
4.254062986311e+05
4.255168131657e+05
4.256282699773e+05
4.257407303417e+05
4.258542605650e+05
4.259689325245e+05
4.260848242831e+05
4.262020207914e+05
4.263206146925e+05
4.264407072478e+05
4.265624094061e+05
4.266858430454e+05
4.268111424191e+05
4.269384558510e+05
4.270679477305e+05
4.271998008758e+05
4.273342193482e+05
4.274714318268e+05
4.276116956810e+05
4.277553019229e+05
4.279025812791e+05
4.280539116967e+05
4.282097277141e+05
4.283705322795e+05
4.285369118269e+05
4.287095557512e+05
4.288892819169e+05
4.290770705934e+05
4.292741103924e+05
4.294818616908e+05
4.297021461815e+05
4.299372766334e+05
4.301902506577e+05
4.304650505196e+05
4.307671271970e+05
4.311042236013e+05
4.314878686013e+05
4.319363254838e+05
4.324811047292e+05
4.335400000000e+05
4.336410297035e+05
4.337424375617e+05
4.338442442412e+05
4.339464717013e+05
4.340491432925e+05
4.341522838641e+05
4.342559198820e+05
4.343600795583e+05
4.344647929943e+05
4.345700923375e+05
4.346760119557e+05
4.347825886297e+05
4.348898617672e+05
4.349978736406e+05
4.351066696522e+05
4.352162986311e+05
4.353268131657e+05
4.354382699773e+05
4.355507303417e+05
4.356642605650e+05
4.357789325245e+05
4.358948242831e+05
4.360120207914e+05
4.361306146925e+05
4.362507072478e+05
4.363724094061e+05
4.364958430454e+05
4.366211424191e+05
4.367484558510e+05
4.368779477305e+05
4.370098008758e+05
4.371442193482e+05
4.372814318268e+05
4.374216956810e+05
4.375653019229e+05
4.377125812791e+05
4.378639116967e+05
4.380197277141e+05
4.381805322795e+05
4.383469118269e+05
4.385195557512e+05
4.386992819169e+05
4.388870705934e+05
4.390841103924e+05
4.392918616908e+05
4.395121461815e+05
4.397472766334e+05
4.400002506577e+05
4.402750505196e+05
4.405771271970e+05
4.409142236013e+05
4.412978686013e+05
4.417463254838e+05
4.422911047292e+05
4.433500000000e+05
4.434510297035e+05
4.435524375617e+05
4.436542442412e+05
4.437564717013e+05
4.438591432925e+05
4.439622838641e+05
4.440659198820e+05
4.441700795583e+05
4.442747929943e+05
4.443800923375e+05
4.444860119557e+05
4.445925886297e+05
4.446998617672e+05
4.448078736406e+05
4.449166696522e+05
4.450262986311e+05
4.451368131657e+05
4.452482699773e+05
4.453607303417e+05
4.454742605650e+05
4.455889325245e+05
4.457048242831e+05
4.458220207914e+05
4.459406146925e+05
4.460607072478e+05
4.461824094061e+05
4.463058430454e+05
4.464311424191e+05
4.465584558510e+05
4.466879477305e+05
4.468198008758e+05
4.469542193482e+05
4.470914318268e+05
4.472316956810e+05
4.473753019229e+05
4.475225812791e+05
4.476739116967e+05
4.478297277141e+05
4.479905322795e+05
4.481569118269e+05
4.483295557512e+05
4.485092819169e+05
4.486970705934e+05
4.488941103924e+05
4.491018616908e+05
4.493221461815e+05
4.495572766334e+05
4.498102506577e+05
4.500850505196e+05
4.503871271970e+05
4.507242236013e+05
4.511078686013e+05
4.515563254838e+05
4.521011047292e+05
4.531600000000e+05
4.532610297035e+05
4.533624375617e+05
4.534642442412e+05
4.535664717013e+05
4.536691432925e+05
4.537722838641e+05
4.538759198820e+05
4.539800795583e+05
4.540847929943e+05
4.541900923375e+05
4.542960119557e+05
4.544025886297e+05
4.545098617672e+05
4.546178736406e+05
4.547266696522e+05
4.548362986311e+05
4.549468131657e+05
4.550582699773e+05
4.551707303417e+05
4.552842605650e+05
4.553989325245e+05
4.555148242831e+05
4.556320207914e+05
4.557506146925e+05
4.558707072478e+05
4.559924094061e+05
4.561158430454e+05
4.562411424191e+05
4.563684558510e+05
4.564979477305e+05
4.566298008758e+05
4.567642193482e+05
4.569014318268e+05
4.570416956810e+05
4.571853019229e+05
4.573325812791e+05
4.574839116967e+05
4.576397277141e+05
4.578005322795e+05
4.579669118269e+05
4.581395557512e+05
4.583192819169e+05
4.585070705933e+05
4.587041103924e+05
4.589118616908e+05
4.591321461815e+05
4.593672766334e+05
4.596202506577e+05
4.598950505196e+05
4.601971271970e+05
4.605342236013e+05
4.609178686013e+05
4.613663254838e+05
4.619111047292e+05
4.629700000000e+05
4.630710297035e+05
4.631724375617e+05
4.632742442412e+05
4.633764717013e+05
4.634791432925e+05
4.635822838641e+05
4.636859198820e+05
4.637900795583e+05
4.638947929943e+05
4.640000923375e+05
4.641060119557e+05
4.642125886297e+05
4.643198617672e+05
4.644278736406e+05
4.645366696522e+05
4.646462986311e+05
4.647568131657e+05
4.648682699773e+05
4.649807303417e+05
4.650942605650e+05
4.652089325245e+05
4.653248242831e+05
4.654420207914e+05
4.655606146925e+05
4.656807072478e+05
4.658024094061e+05
4.659258430454e+05
4.660511424191e+05
4.661784558510e+05